----- GAMESS execution script 'rungms' -----
This job is running on host doreen
under operating system Linux at wto, 29 lip 2014, 21:20:16 CEST
Available scratch disk space (Kbyte units) at beginning of the job is
System plików  1K-blocks     użyte dostępne %uż. zamont. na
/dev/sda5      264208320 219294464 31469816  88% /home
GAMESS temporary binary files will be written to /home/lmentel/scratch
GAMESS supplementary output files will be written to /home/lmentel/scratch
Copying input file ne_dz_guga.inp to your run's scratch directory...
cp ne_dz_guga.inp /home/lmentel/scratch/ne_dz_guga.F05
unset echo
/home/lmentel/Programs/gamess-us-may2013/ddikick.x /home/lmentel/Programs/gamess-us-may2013/gamess.01.x ne_dz_guga -ddi 1 1 doreen -scr /home/lmentel/scratch

 Distributed Data Interface kickoff program.
 Initiating 1 compute processes on 1 nodes to run the following command:
 /home/lmentel/Programs/gamess-us-may2013/gamess.01.x ne_dz_guga 

          ******************************************************
          *         GAMESS VERSION =  1 MAY 2013 (R1)          *
          *             FROM IOWA STATE UNIVERSITY             *
          * M.W.SCHMIDT, K.K.BALDRIDGE, J.A.BOATZ, S.T.ELBERT, *
          *   M.S.GORDON, J.H.JENSEN, S.KOSEKI, N.MATSUNAGA,   *
          *          K.A.NGUYEN, S.J.SU, T.L.WINDUS,           *
          *       TOGETHER WITH M.DUPUIS, J.A.MONTGOMERY       *
          *         J.COMPUT.CHEM.  14, 1347-1363(1993)        *
          **************** 64 BIT LINUX VERSION ****************

  SINCE 1993, STUDENTS AND POSTDOCS WORKING AT IOWA STATE UNIVERSITY
  AND ALSO IN THEIR VARIOUS JOBS AFTER LEAVING ISU HAVE MADE IMPORTANT
  CONTRIBUTIONS TO THE CODE:
     IVANA ADAMOVIC, CHRISTINE AIKENS, YURI ALEXEEV, POOJA ARORA,
     ANDREY ASADCHEV, ROB BELL, PRADIPTA BANDYOPADHYAY, JONATHAN BENTZ,
     BRETT BODE, GALINA CHABAN, WEI CHEN, CHEOL HO CHOI, PAUL DAY,
     ALBERT DEFUSCO, TIM DUDLEY, DMITRI FEDOROV, GRAHAM FLETCHER,
     MARK FREITAG, KURT GLAESEMANN, DAN KEMP, GRANT MERRILL,
     NORIYUKI MINEZAWA, JONATHAN MULLIN, TAKESHI NAGATA,
     SEAN NEDD, HEATHER NETZLOFF, BOSILJKA NJEGIC, RYAN OLSON, MIKE PAK,
     JIM SHOEMAKER, LYUDMILA SLIPCHENKO, SAROM SOK, JIE SONG,
     TETSUYA TAKETSUGU, SIMON WEBB, SOOHAENG YOO, FEDERICO ZAHARIEV

  ADDITIONAL CODE HAS BEEN PROVIDED BY COLLABORATORS IN OTHER GROUPS:
     IOWA STATE UNIVERSITY:
          JOE IVANIC, LAIMUTIS BYTAUTAS, KLAUS RUEDENBERG
     UNIVERSITY OF TOKYO: KIMIHIKO HIRAO, TAKAHITO NAKAJIMA,
          TAKAO TSUNEDA, MUNEAKI KAMIYA, SUSUMU YANAGISAWA,
          KIYOSHI YAGI, MAHITO CHIBA, SEIKEN TOKURA, NAOAKI KAWAKAMI
     UNIVERSITY OF AARHUS: FRANK JENSEN
     UNIVERSITY OF IOWA: VISVALDAS KAIRYS, HUI LI
     NATIONAL INST. OF STANDARDS AND TECHNOLOGY: WALT STEVENS, DAVID GARMER
     UNIVERSITY OF PISA: BENEDETTA MENNUCCI, JACOPO TOMASI
     UNIVERSITY OF MEMPHIS: HENRY KURTZ, PRAKASHAN KORAMBATH
     UNIVERSITY OF ALBERTA: TOBY ZENG, MARIUSZ KLOBUKOWSKI
     UNIVERSITY OF NEW ENGLAND: MARK SPACKMAN
     MIE UNIVERSITY: HIROAKI UMEDA
     MICHIGAN STATE UNIVERSITY:
          KAROL KOWALSKI, MARTA WLOCH, JEFFREY GOUR, JESSE LUTZ,
          WEI LI, PIOTR PIECUCH
     UNIVERSITY OF SILESIA: MONIKA MUSIAL, STANISLAW KUCHARSKI
     FACULTES UNIVERSITAIRES NOTRE-DAME DE LA PAIX:
          OLIVIER QUINET, BENOIT CHAMPAGNE
     UNIVERSITY OF CALIFORNIA - SANTA BARBARA: BERNARD KIRTMAN
     INSTITUTE FOR MOLECULAR SCIENCE:
          KAZUYA ISHIMURA, MICHIO KATOUDA, AND SHIGERU NAGASE
     UNIVERSITY OF NOTRE DAME: DAN CHIPMAN
     KYUSHU UNIVERSITY:
          HARUYUKI NAKANO,
          FENG LONG GU, JACEK KORCHOWIEC, MARCIN MAKOWSKI, AND YURIKO AOKI,
          HIROTOSHI MORI AND EISAKU MIYOSHI
     PENNSYLVANIA STATE UNIVERSITY:
          TZVETELIN IORDANOV, CHET SWALINA, JONATHAN SKONE,
          SHARON HAMMES-SCHIFFER
     WASEDA UNIVERSITY:
          MASATO KOBAYASHI, TOMOKO AKAMA, TSUGUKI TOUMA,
          TAKESHI YOSHIKAWA, YASUHIRO IKABATA, HIROMI NAKAI
     NANJING UNIVERSITY: SHUHUA LI
     UNIVERSITY OF NEBRASKA:
          PEIFENG SU, DEJUN SI, NANDUN THELLAMUREGE, YALI WANG, HUI LI
     UNIVERSITY OF ZURICH:
          ROBERTO PEVERATI, KIM BALDRIDGE
     N. COPERNICUS UNIVERSITY AND JACKSON STATE UNIVERSITY:
          MARIA BARYSZ

 EXECUTION OF GAMESS BEGUN Tue Jul 29 21:20:16 2014

            ECHO OF THE FIRST FEW INPUT CARDS -
 INPUT CARD> $CONTRL                                                                        
 INPUT CARD>    SCFTYP=RHF                                                                  
 INPUT CARD>    RUNTYP=ENERGY                                                               
 INPUT CARD>    CITYP=GUGA                                                                  
 INPUT CARD>    MAXIT=200                                                                   
 INPUT CARD>    MULT=1                                                                      
 INPUT CARD>    ISPHER=1                                                                    
 INPUT CARD>    ICUT=20                                                                     
 INPUT CARD>    ITOL=20                                                                     
 INPUT CARD>    QMTTOL=1.E-8                                                                
 INPUT CARD>    ICHARG=0                                                                    
 INPUT CARD>    exetyp=debug                                                                
 INPUT CARD> $END                                                                           
 INPUT CARD> $SYSTEM TIMLIM=14400 MWORDS=100 MEMDDI=0 $END                                  
 INPUT CARD> $SCF                                                                           
 INPUT CARD>    DIRSCF=.F. FDIFF=.F. VVOS=.F.                                               
 INPUT CARD> $END                                                                           
 INPUT CARD> $CIDRT                                                                         
 INPUT CARD>    iexcit=2                                                                    
 INPUT CARD>    nfzc=1                                                                      
 INPUT CARD>    ndoc=4                                                                      
 INPUT CARD>    nval=9                                                                      
 INPUT CARD>    group=d2h                                                                   
 INPUT CARD>    STSYM=AG                                                                    
 INPUT CARD> $END                                                                           
 INPUT CARD> $GUGDIA                                                                        
 INPUT CARD>    CVGTOL=1E-10                                                                
 INPUT CARD> $END                                                                           
 INPUT CARD> $BASIS GBASIS=CCD $END                                                         
 INPUT CARD> $DATA                                                                          
 INPUT CARD>Title                                                                           
 INPUT CARD>DNH 2                                                                           
 INPUT CARD>                                                                                
 INPUT CARD>NE 10.0       0.00000000       0.00000000      0.0000000                        
 INPUT CARD> $END                                                                           
  100000000 WORDS OF MEMORY AVAILABLE

     BASIS OPTIONS
     -------------
     GBASIS=CCD          IGAUSS=       0      POLAR=NONE    
     NDFUNC=       0     NFFUNC=       0     DIFFSP=       F
     NPFUNC=       0      DIFFS=       F     BASNAM=        


     RUN TITLE
     ---------
 Title                                                                           

 THE POINT GROUP OF THE MOLECULE IS DNH     
 THE ORDER OF THE PRINCIPAL AXIS IS     2

 ATOM      ATOMIC                      COORDINATES (BOHR)
           CHARGE         X                   Y                   Z
 NE         10.0     0.0000000000        0.0000000000        0.0000000000

          INTERNUCLEAR DISTANCES (ANGS.)
          ------------------------------

                1 NE    

   1 NE      0.0000000  

  * ... LESS THAN  3.000


     ATOMIC BASIS SET
     ----------------
 THE CONTRACTED PRIMITIVE FUNCTIONS HAVE BEEN UNNORMALIZED
 THE CONTRACTED BASIS FUNCTIONS ARE NOW NORMALIZED TO UNITY

  SHELL TYPE  PRIMITIVE        EXPONENT          CONTRACTION COEFFICIENT(S)

 NE        

      1   S       1         17880.0000000    0.000737698173
      1   S       2          2683.0000000    0.005674678224
      1   S       3           611.5000000    0.028871187451
      1   S       4           173.5000000    0.108495609386
      1   S       5            56.6400000    0.290788025057
      1   S       6            20.4200000    0.448140644761
      1   S       7             7.8100000    0.257920472705
      1   S       8             1.6530000    0.015056839545

      2   S       9         17880.0000000   -0.000332149099
      2   S      10          2683.0000000   -0.002620501907
      2   S      11           611.5000000   -0.013009816761
      2   S      12           173.5000000   -0.053420003126
      2   S      13            56.6400000   -0.147165224243
      2   S      14            20.4200000   -0.338380757248
      2   S      15             7.8100000   -0.206701019217
      2   S      16             1.6530000    1.095029923456

      3   S      17             0.4869000    1.000000000000

      4   P      18            28.3900000    0.066171986640
      4   P      19             6.2700000    0.344853297528
      4   P      20             1.6950000    0.730457638189

      5   P      21             0.4317000    1.000000000000

      6   D      22             2.2020000    1.000000000000

 TOTAL NUMBER OF BASIS SET SHELLS             =    6
 NUMBER OF CARTESIAN GAUSSIAN BASIS FUNCTIONS =   15
 NOTE: THIS RUN WILL RESTRICT THE MO VARIATION SPACE TO SPHERICAL HARMONICS.
 THE NUMBER OF ORBITALS KEPT IN THE VARIATIONAL SPACE WILL BE PRINTED LATER.
 NUMBER OF ELECTRONS                          =   10
 CHARGE OF MOLECULE                           =    0
 SPIN MULTIPLICITY                            =    1
 NUMBER OF OCCUPIED ORBITALS (ALPHA)          =    5
 NUMBER OF OCCUPIED ORBITALS (BETA )          =    5
 TOTAL NUMBER OF ATOMS                        =    1
 THE NUCLEAR REPULSION ENERGY IS        0.0000000000

 THIS MOLECULE IS RECOGNIZED AS BEING LINEAR,
 ORBITAL LZ DEGENERACY TOLERANCE ETOLLZ= 1.00E-06

     $CONTRL OPTIONS
     ---------------
 SCFTYP=RHF          RUNTYP=ENERGY       EXETYP=DEBUG   
 MPLEVL=       0     CITYP =GUGA         CCTYP =NONE         VBTYP =NONE    
 DFTTYP=NONE         TDDFT =NONE    
 MULT  =       1     ICHARG=       0     NZVAR =       0     COORD =UNIQUE  
 PP    =NONE         RELWFN=NONE         LOCAL =NONE         NUMGRD=       F
 ISPHER=       1     NOSYM =       0     MAXIT =     200     UNITS =ANGS    
 PLTORB=       F     MOLPLT=       F     AIMPAC=       F     FRIEND=        
 NPRINT=       7     IREST =       0     GEOM  =INPUT   
 NORMF =       0     NORMP =       0     ITOL  =      20     ICUT  =      20
 INTTYP=BEST         GRDTYP=BEST         QMTTOL= 1.0E-08

     $SYSTEM OPTIONS
     ---------------
  REPLICATED MEMORY=   100000000 WORDS (ON EVERY NODE).
 DISTRIBUTED MEMDDI=           0 MILLION WORDS IN AGGREGATE,
 MEMDDI DISTRIBUTED OVER   1 PROCESSORS IS           0 WORDS/PROCESSOR.
 TOTAL MEMORY REQUESTED ON EACH PROCESSOR=   100000000 WORDS.
 TIMLIM=       14400.00 MINUTES, OR      10.0 DAYS.
 PARALL= F  BALTYP=  DLB     KDIAG=    0  COREFL= F
 MXSEQ2=     300 MXSEQ3=     150

          ----------------
          PROPERTIES INPUT
          ----------------

     MOMENTS            FIELD           POTENTIAL          DENSITY
 IEMOM =       1   IEFLD =       0   IEPOT =       0   IEDEN =       0
 WHERE =COMASS     WHERE =NUCLEI     WHERE =NUCLEI     WHERE =NUCLEI  
 OUTPUT=BOTH       OUTPUT=BOTH       OUTPUT=BOTH       OUTPUT=BOTH    
 IEMINT=       0   IEFINT=       0                     IEDINT=       0
                                                       MORB  =       0
          EXTRAPOLATION IN EFFECT
          SOSCF IN EFFECT
 ORBITAL PRINTING OPTION: NPREO=     1    15     2     1

     -------------------------------
     INTEGRAL TRANSFORMATION OPTIONS
     -------------------------------
     NWORD  =            0
     CUTOFF = 1.0E-09     MPTRAN =       0
     DIRTRF =       F     AOINTS =DUP     

          ----------------------
          INTEGRAL INPUT OPTIONS
          ----------------------
 NOPK  =       1 NORDER=       0 SCHWRZ=       F

     ------------------------------------------
     THE POINT GROUP IS DNH, NAXIS= 2, ORDER= 8
     ------------------------------------------

 -- VARIATIONAL SPACE WILL BE RESTRICTED TO PURE SPHERICAL HARMONICS ONLY --
 AFTER EXCLUDING CONTAMINANT COMBINATIONS FROM THE CARTESIAN GAUSSIAN BASIS
 SET, THE NUMBER OF SPHERICAL HARMONICS KEPT IN THE VARIATION SPACE IS   14

     DIMENSIONS OF THE SYMMETRY SUBSPACES ARE
 AG  =    5     AU  =    0     B3U =    2     B3G =    1     B1G =    1
 B1U =    2     B2U =    2     B2G =    1

 ..... DONE SETTING UP THE RUN .....
 STEP CPU TIME =     0.00 TOTAL CPU TIME =        0.0 (    0.0 MIN)
 TOTAL WALL CLOCK TIME=        0.0 SECONDS, CPU UTILIZATION IS   0.00%

          ********************
          1 ELECTRON INTEGRALS
          ********************
 OVERLAP MATRIX

                      1          2          3          4          5

    1  NE 1  S    1.000000
    2  NE 1  S   -0.210150   1.000000
    3  NE 1  S    0.195988   0.704450   1.000000
    4  NE 1  X    0.000000   0.000000   0.000000   1.000000
    5  NE 1  Y    0.000000   0.000000   0.000000   0.000000   1.000000
    6  NE 1  Z    0.000000   0.000000   0.000000   0.000000   0.000000
    7  NE 1  X    0.000000   0.000000   0.000000   0.484155   0.000000
    8  NE 1  Y    0.000000   0.000000   0.000000   0.000000   0.484155
    9  NE 1  Z    0.000000   0.000000   0.000000   0.000000   0.000000
   10  NE 1 XX    0.085267   0.652726   0.639128   0.000000   0.000000
   11  NE 1 YY    0.085267   0.652726   0.639128   0.000000   0.000000
   12  NE 1 ZZ    0.085267   0.652726   0.639128   0.000000   0.000000
   13  NE 1 XY    0.000000   0.000000   0.000000   0.000000   0.000000
   14  NE 1 XZ    0.000000   0.000000   0.000000   0.000000   0.000000
   15  NE 1 YZ    0.000000   0.000000   0.000000   0.000000   0.000000

                      6          7          8          9         10

    6  NE 1  Z    1.000000
    7  NE 1  X    0.000000   1.000000
    8  NE 1  Y    0.000000   0.000000   1.000000
    9  NE 1  Z    0.484155   0.000000   0.000000   1.000000
   10  NE 1 XX    0.000000   0.000000   0.000000   0.000000   1.000000
   11  NE 1 YY    0.000000   0.000000   0.000000   0.000000   0.333333
   12  NE 1 ZZ    0.000000   0.000000   0.000000   0.000000   0.333333
   13  NE 1 XY    0.000000   0.000000   0.000000   0.000000   0.000000
   14  NE 1 XZ    0.000000   0.000000   0.000000   0.000000   0.000000
   15  NE 1 YZ    0.000000   0.000000   0.000000   0.000000   0.000000

                     11         12         13         14         15

   11  NE 1 YY    1.000000
   12  NE 1 ZZ    0.333333   1.000000
   13  NE 1 XY    0.000000   0.000000   1.000000
   14  NE 1 XZ    0.000000   0.000000   0.000000   1.000000
   15  NE 1 YZ    0.000000   0.000000   0.000000   0.000000   1.000000
 BARE NUCLEUS HAMILTONIAN INTEGRALS (H=T+V)

                      1          2          3          4          5

    1  NE 1  S  -49.907848
    2  NE 1  S   11.636159 -14.319844
    3  NE 1  S   -9.083846  -6.744487 -10.404643
    4  NE 1  X    0.000000   0.000000   0.000000 -11.723245
    5  NE 1  Y    0.000000   0.000000   0.000000   0.000000 -11.723245
    6  NE 1  Z    0.000000   0.000000   0.000000   0.000000   0.000000
    7  NE 1  X    0.000000   0.000000   0.000000  -5.012169   0.000000
    8  NE 1  Y    0.000000   0.000000   0.000000   0.000000  -5.012169
    9  NE 1  Z    0.000000   0.000000   0.000000   0.000000   0.000000
   10  NE 1 XX   -3.737019  -6.843216  -7.232037   0.000000   0.000000
   11  NE 1 YY   -3.737019  -6.843216  -7.232037   0.000000   0.000000
   12  NE 1 ZZ   -3.737019  -6.843216  -7.232037   0.000000   0.000000
   13  NE 1 XY    0.000000   0.000000   0.000000   0.000000   0.000000
   14  NE 1 XZ    0.000000   0.000000   0.000000   0.000000   0.000000
   15  NE 1 YZ    0.000000   0.000000   0.000000   0.000000   0.000000

                      6          7          8          9         10

    6  NE 1  Z  -11.723245
    7  NE 1  X    0.000000  -5.910632
    8  NE 1  Y    0.000000   0.000000  -5.910632
    9  NE 1  Z   -5.012169   0.000000   0.000000  -5.910632
   10  NE 1 XX    0.000000   0.000000   0.000000   0.000000  -7.858247
   11  NE 1 YY    0.000000   0.000000   0.000000   0.000000  -4.576749
   12  NE 1 ZZ    0.000000   0.000000   0.000000   0.000000  -4.576749
   13  NE 1 XY    0.000000   0.000000   0.000000   0.000000   0.000000
   14  NE 1 XZ    0.000000   0.000000   0.000000   0.000000   0.000000
   15  NE 1 YZ    0.000000   0.000000   0.000000   0.000000   0.000000

                     11         12         13         14         15

   11  NE 1 YY   -7.858247
   12  NE 1 ZZ   -4.576749  -7.858247
   13  NE 1 XY    0.000000   0.000000  -4.922247
   14  NE 1 XZ    0.000000   0.000000   0.000000  -4.922247
   15  NE 1 YZ    0.000000   0.000000   0.000000   0.000000  -4.922247
 KINETIC ENERGY INTEGRALS

                      1          2          3          4          5

    1  NE 1  S   46.235451
    2  NE 1  S  -25.619506  16.903422
    3  NE 1  S    0.272485   0.757330   0.730350
    4  NE 1  X    0.000000   0.000000   0.000000   7.194727
    5  NE 1  Y    0.000000   0.000000   0.000000   0.000000   7.194727
    6  NE 1  Z    0.000000   0.000000   0.000000   0.000000   0.000000
    7  NE 1  X    0.000000   0.000000   0.000000   0.851119   0.000000
    8  NE 1  Y    0.000000   0.000000   0.000000   0.000000   0.851119
    9  NE 1  Z    0.000000   0.000000   0.000000   0.000000   0.000000
   10  NE 1 XX   -1.407448   2.004061   0.651825   0.000000   0.000000
   11  NE 1 YY   -1.407448   2.004061   0.651825   0.000000   0.000000
   12  NE 1 ZZ   -1.407448   2.004061   0.651825   0.000000   0.000000
   13  NE 1 XY    0.000000   0.000000   0.000000   0.000000   0.000000
   14  NE 1 XZ    0.000000   0.000000   0.000000   0.000000   0.000000
   15  NE 1 YZ    0.000000   0.000000   0.000000   0.000000   0.000000

                      6          7          8          9         10

    6  NE 1  Z    7.194727
    7  NE 1  X    0.000000   1.079250
    8  NE 1  Y    0.000000   0.000000   1.079250
    9  NE 1  Z    0.851119   0.000000   0.000000   1.079250
   10  NE 1 XX    0.000000   0.000000   0.000000   0.000000   4.771000
   11  NE 1 YY    0.000000   0.000000   0.000000   0.000000  -0.367000
   12  NE 1 ZZ    0.000000   0.000000   0.000000   0.000000  -0.367000
   13  NE 1 XY    0.000000   0.000000   0.000000   0.000000   0.000000
   14  NE 1 XZ    0.000000   0.000000   0.000000   0.000000   0.000000
   15  NE 1 YZ    0.000000   0.000000   0.000000   0.000000   0.000000

                     11         12         13         14         15

   11  NE 1 YY    4.771000
   12  NE 1 ZZ   -0.367000   4.771000
   13  NE 1 XY    0.000000   0.000000   7.707000
   14  NE 1 XZ    0.000000   0.000000   0.000000   7.707000
   15  NE 1 YZ    0.000000   0.000000   0.000000   0.000000   7.707000
 Z-ANGULAR MOMENTUM INTEGRALS

                      1          2          3          4          5

    1  NE 1  S    0.000000
    2  NE 1  S    0.000000   0.000000
    3  NE 1  S    0.000000   0.000000   0.000000
    4  NE 1  X    0.000000   0.000000   0.000000   0.000000
    5  NE 1  Y    0.000000   0.000000   0.000000  -1.000000   0.000000
    6  NE 1  Z    0.000000   0.000000   0.000000   0.000000   0.000000
    7  NE 1  X    0.000000   0.000000   0.000000   0.000000   0.484155
    8  NE 1  Y    0.000000   0.000000   0.000000  -0.484155   0.000000
    9  NE 1  Z    0.000000   0.000000   0.000000   0.000000   0.000000
   10  NE 1 XX    0.000000   0.000000   0.000000   0.000000   0.000000
   11  NE 1 YY    0.000000   0.000000   0.000000   0.000000   0.000000
   12  NE 1 ZZ    0.000000   0.000000   0.000000   0.000000   0.000000
   13  NE 1 XY    0.000000   0.000000   0.000000   0.000000   0.000000
   14  NE 1 XZ    0.000000   0.000000   0.000000   0.000000   0.000000
   15  NE 1 YZ    0.000000   0.000000   0.000000   0.000000   0.000000

                      6          7          8          9         10

    6  NE 1  Z    0.000000
    7  NE 1  X    0.000000   0.000000
    8  NE 1  Y    0.000000  -1.000000   0.000000
    9  NE 1  Z    0.000000   0.000000   0.000000   0.000000
   10  NE 1 XX    0.000000   0.000000   0.000000   0.000000   0.000000
   11  NE 1 YY    0.000000   0.000000   0.000000   0.000000   0.000000
   12  NE 1 ZZ    0.000000   0.000000   0.000000   0.000000   0.000000
   13  NE 1 XY    0.000000   0.000000   0.000000   0.000000  -1.154701
   14  NE 1 XZ    0.000000   0.000000   0.000000   0.000000   0.000000
   15  NE 1 YZ    0.000000   0.000000   0.000000   0.000000   0.000000

                     11         12         13         14         15

   11  NE 1 YY    0.000000
   12  NE 1 ZZ    0.000000   0.000000
   13  NE 1 XY    1.154701   0.000000   0.000000
   14  NE 1 XZ    0.000000   0.000000   0.000000   0.000000
   15  NE 1 YZ    0.000000   0.000000   0.000000  -1.000000   0.000000
 ...... END OF ONE-ELECTRON INTEGRALS ......
 STEP CPU TIME =     0.00 TOTAL CPU TIME =        0.0 (    0.0 MIN)
 TOTAL WALL CLOCK TIME=        0.0 SECONDS, CPU UTILIZATION IS   0.00%

          -------------
          GUESS OPTIONS
          -------------
          GUESS =HUCKEL            NORB  =       0          NORDER=       0
          MIX   =       F          PRTMO =       F          PUNMO =       F
          TOLZ  = 1.0E-08          TOLE  = 1.0E-05
          SYMDEN=       F          PURIFY=       F

 INITIAL GUESS ORBITALS GENERATED BY HUCKEL   ROUTINE.
 HUCKEL GUESS REQUIRES      2611 WORDS.
 ATOM    1  HAS LLIM=    1  IULIM=    5

 EXTENDED HUCKEL MATRIX

             1           2           3           4           5

    1  -32.8000000
    2   -0.3157758  -1.9300000
    3   -0.0000000  -0.0000000  -0.8500000
    4   -0.0000000  -0.0000000  -0.0000000  -0.8500000
    5   -0.0000000  -0.0000000  -0.0000000  -0.0000000  -0.8500000
 EXTENDED HUCKEL ORBITALS (IN MINI BASIS) ARE

                      1          2          3          4          5

                -32.803230  -1.926770  -0.850000  -0.850000  -0.850000

    1             0.997829   0.222436   0.000000   0.000000   0.000000
    2             0.010206  -1.022270   0.000000   0.000000   0.000000
    3             0.000000   0.000000   1.000000   0.000000   0.000000
    4             0.000000   0.000000   0.000000   1.000000   0.000000
    5             0.000000   0.000000   0.000000   0.000000   1.000000

 STATISTICS FOR GENERATION OF SYMMETRY ORBITAL -Q- MATRIX
 NUMBER OF CARTESIAN ATOMIC ORBITALS=         15
 NUMBER OF SPHERICAL CONTAMINANTS DROPPED=     1
 NUMBER OF LINEARLY DEPENDENT MOS DROPPED=     0
 TOTAL NUMBER OF MOS IN VARIATION SPACE=      14
 ENTERED COPROJ
 THE -B- MBS ORBITALS ARE

             1           2           3           4           5

    1    0.9978291   0.2224355   0.0000000   0.0000000   0.0000000
    2    0.0102059  -1.0222702   0.0000000   0.0000000   0.0000000
    3    0.0000000   0.0000000   1.0000000   0.0000000   0.0000000
    4    0.0000000   0.0000000   0.0000000   1.0000000   0.0000000
    5    0.0000000   0.0000000   0.0000000   0.0000000   1.0000000
 THE -SBA- MATRIX IS

             1           2           3           4           5

    1    0.9986244  -0.2526099   0.1685896   0.0000000   0.0000000
    2    0.2441428   0.8338852   0.9523729   0.0000000   0.0000000
    3    0.0000000   0.0000000   0.0000000   0.9192263   0.0000000
    4    0.0000000   0.0000000   0.0000000   0.0000000   0.9192263
    5    0.0000000   0.0000000   0.0000000   0.0000000   0.0000000

             6           7           8           9          10

    1    0.0000000   0.0000000   0.0000000   0.0000000   0.0590499
    2    0.0000000   0.0000000   0.0000000   0.0000000   0.6983540
    3    0.0000000   0.7851345   0.0000000   0.0000000   0.0000000
    4    0.0000000   0.0000000   0.7851345   0.0000000   0.0000000
    5    0.9192263   0.0000000   0.0000000   0.7851345   0.0000000

            11          12          13          14          15

    1    0.0590499   0.0590499   0.0000000   0.0000000   0.0000000
    2    0.6983540   0.6983540   0.0000000   0.0000000   0.0000000
    3    0.0000000   0.0000000   0.0000000   0.0000000   0.0000000
    4    0.0000000   0.0000000   0.0000000   0.0000000   0.0000000
    5    0.0000000   0.0000000   0.0000000   0.0000000   0.0000000
 PROJECTING WITH NDOC,NACT,NPROJ=    5    0    5
 ON PASS   1 MINMO,MAXMO,NMO,NREST=    1    5    5   14
 THE -A- ORBITALS ARE

             1           2           3           4           5

    1    0.7628634   0.0000000   0.0000000   0.8972593  -0.0118703
    2    1.5186967   0.0000000   0.0000000  -0.2153621   0.5432360
    3   -1.5115474   0.0000000   0.0000000   0.2364574   0.5398146
    4    0.0000000   0.0000000   0.0000000   0.0000000   0.0000000
    5    0.0000000   0.0000000   0.0000000   0.0000000   0.0000000
    6    0.0000000   0.0000000   0.0000000   0.0000000   0.0000000
    7    0.0000000   0.0000000   0.0000000   0.0000000   0.0000000
    8    0.0000000   0.0000000   0.0000000   0.0000000   0.0000000
    9    0.0000000   0.0000000   0.0000000   0.0000000   0.0000000
   10    0.0000000  -0.5000000   0.8660254   0.0000000   0.0000000
   11    0.0000000  -0.5000000  -0.8660254   0.0000000   0.0000000
   12    0.0000000   1.0000000   0.0000000   0.0000000   0.0000000
   13    0.0000000   0.0000000   0.0000000   0.0000000   0.0000000
   14    0.0000000   0.0000000   0.0000000   0.0000000   0.0000000
   15    0.0000000   0.0000000   0.0000000   0.0000000   0.0000000

             6           7           8           9          10

    1    0.0000000   0.0000000   0.0000000   0.0000000   0.0000000
    2    0.0000000   0.0000000   0.0000000   0.0000000   0.0000000
    3    0.0000000   0.0000000   0.0000000   0.0000000   0.0000000
    4    0.9845222   0.5804239   0.0000000   0.0000000   0.0000000
    5    0.0000000   0.0000000   0.0000000   0.0000000   0.0000000
    6    0.0000000   0.0000000   0.0000000   0.0000000   0.9845222
    7   -0.9845222   0.5804239   0.0000000   0.0000000   0.0000000
    8    0.0000000   0.0000000   0.0000000   0.0000000   0.0000000
    9    0.0000000   0.0000000   0.0000000   0.0000000  -0.9845222
   10    0.0000000   0.0000000   0.0000000   0.0000000   0.0000000
   11    0.0000000   0.0000000   0.0000000   0.0000000   0.0000000
   12    0.0000000   0.0000000   0.0000000   0.0000000   0.0000000
   13    0.0000000   0.0000000   0.0000000   1.0000000   0.0000000
   14    0.0000000   0.0000000   0.0000000   0.0000000   0.0000000
   15    0.0000000   0.0000000   1.0000000   0.0000000   0.0000000

            11          12          13          14

    1    0.0000000   0.0000000   0.0000000   0.0000000
    2    0.0000000   0.0000000   0.0000000   0.0000000
    3    0.0000000   0.0000000   0.0000000   0.0000000
    4    0.0000000   0.0000000   0.0000000   0.0000000
    5    0.0000000   0.9845222   0.5804239   0.0000000
    6    0.5804239   0.0000000   0.0000000   0.0000000
    7    0.0000000   0.0000000   0.0000000   0.0000000
    8    0.0000000  -0.9845222   0.5804239   0.0000000
    9    0.5804239   0.0000000   0.0000000   0.0000000
   10    0.0000000   0.0000000   0.0000000   0.0000000
   11    0.0000000   0.0000000   0.0000000   0.0000000
   12    0.0000000   0.0000000   0.0000000   0.0000000
   13    0.0000000   0.0000000   0.0000000   0.0000000
   14    0.0000000   0.0000000   0.0000000   1.0000000
   15    0.0000000   0.0000000   0.0000000   0.0000000
 OVERLAP BETWEEN THE -B- AND -A- ORBITALS IS

             1           2           3           4           5

    1    0.1232111  -0.0000000   0.0000000   0.9908433  -0.0481069
    2    0.0140348  -0.0000000   0.0000000  -0.0502859  -0.9985939
    3    0.0000000   0.0000000   0.0000000   0.0000000   0.0000000
    4    0.0000000   0.0000000   0.0000000   0.0000000   0.0000000
    5    0.0000000   0.0000000   0.0000000   0.0000000   0.0000000

             6           7           8           9          10

    1    0.0000000   0.0000000   0.0000000   0.0000000   0.0000000
    2    0.0000000   0.0000000   0.0000000   0.0000000   0.0000000
    3    0.1320164   0.9892518   0.0000000   0.0000000   0.0000000
    4    0.0000000   0.0000000   0.0000000   0.0000000   0.0000000
    5    0.0000000   0.0000000   0.0000000   0.0000000   0.1320164

            11          12          13          14

    1    0.0000000   0.0000000   0.0000000   0.0000000
    2    0.0000000   0.0000000   0.0000000   0.0000000
    3    0.0000000   0.0000000   0.0000000   0.0000000
    4    0.0000000   0.1320164   0.9892518   0.0000000
    5    0.9892518   0.0000000   0.0000000   0.0000000
 D-DAGGER*D IS

             1           2           3           4           5

    1    0.0153779
    2   -0.0000000   0.0000000
    3    0.0000000  -0.0000000   0.0000000
    4    0.1213771  -0.0000000   0.0000000   0.9842990
    5   -0.0199424   0.0000000  -0.0000000   0.0025488   0.9995040
    6    0.0000000   0.0000000   0.0000000   0.0000000   0.0000000
    7    0.0000000   0.0000000   0.0000000   0.0000000   0.0000000
    8    0.0000000   0.0000000   0.0000000   0.0000000   0.0000000
    9    0.0000000   0.0000000   0.0000000   0.0000000   0.0000000
   10    0.0000000   0.0000000   0.0000000   0.0000000   0.0000000
   11    0.0000000   0.0000000   0.0000000   0.0000000   0.0000000
   12    0.0000000   0.0000000   0.0000000   0.0000000   0.0000000
   13    0.0000000   0.0000000   0.0000000   0.0000000   0.0000000
   14    0.0000000   0.0000000   0.0000000   0.0000000   0.0000000

             6           7           8           9          10

    6    0.0174283
    7    0.1305975   0.9786192
    8    0.0000000   0.0000000   0.0000000
    9    0.0000000   0.0000000   0.0000000   0.0000000
   10    0.0000000   0.0000000   0.0000000   0.0000000   0.0174283
   11    0.0000000   0.0000000   0.0000000   0.0000000   0.1305975
   12    0.0000000   0.0000000   0.0000000   0.0000000   0.0000000
   13    0.0000000   0.0000000   0.0000000   0.0000000   0.0000000
   14    0.0000000   0.0000000   0.0000000   0.0000000   0.0000000

            11          12          13          14

   11    0.9786192
   12    0.0000000   0.0174283
   13    0.0000000   0.1305975   0.9786192
   14    0.0000000   0.0000000   0.0000000   0.0000000
 ORTHOGONALIZED CORR. ORB. TRANSFORMATION

                      1          2          3          4          5

                  0.999920   0.999261   0.996048   0.996048   0.996048

    1            -0.003309   0.124010  -0.000000  -0.000000  -0.000000
    2             0.000000   0.000000  -0.000000  -0.000000  -0.000000
    3             0.000000   0.000000  -0.000000  -0.000000  -0.000000
    4             0.135934   0.983126  -0.000000  -0.000000  -0.000000
    5             0.990712  -0.134478  -0.000000  -0.000000  -0.000000
    6             0.000000   0.000000  -0.000000  -0.000000  -0.132278
    7             0.000000   0.000000  -0.000000  -0.000000  -0.991213
    8             0.000000   0.000000  -0.000000  -0.000000  -0.000000
    9             0.000000   0.000000  -0.000000  -0.000000  -0.000000
   10             0.000000   0.000000  -0.000000  -0.132278  -0.000000
   11             0.000000   0.000000  -0.000000  -0.991213  -0.000000
   12             0.000000   0.000000  -0.132278  -0.000000  -0.000000
   13             0.000000   0.000000  -0.991213  -0.000000  -0.000000
   14             0.000000   0.000000  -0.000000  -0.000000  -0.000000

                      6          7          8          9         10

                  0.000000   0.000000   0.000000   0.000000   0.000000

    1             0.992276   0.000000   0.000000   0.000000   0.000000
    2             0.000000   1.000000   0.000000   0.000000   0.000000
    3             0.000000   0.000000   1.000000   0.000000   0.000000
    4            -0.122413   0.000000   0.000000   0.000000   0.000000
    5             0.020110   0.000000   0.000000   0.000000   0.000000
    6             0.000000   0.000000   0.000000   0.991213   0.000000
    7             0.000000   0.000000   0.000000  -0.132278   0.000000
    8             0.000000   0.000000   0.000000   0.000000   1.000000
    9             0.000000   0.000000   0.000000   0.000000   0.000000
   10             0.000000   0.000000   0.000000   0.000000   0.000000
   11             0.000000   0.000000   0.000000   0.000000   0.000000
   12             0.000000   0.000000   0.000000   0.000000   0.000000
   13             0.000000   0.000000   0.000000   0.000000   0.000000
   14             0.000000   0.000000   0.000000   0.000000   0.000000

                     11         12         13         14

                  0.000000   0.000000   0.000000  -0.000000

    1             0.000000   0.000000   0.000000   0.000000
    2             0.000000   0.000000   0.000000   0.000000
    3             0.000000   0.000000   0.000000   0.000000
    4             0.000000   0.000000   0.000000   0.000000
    5             0.000000   0.000000   0.000000   0.000000
    6             0.000000   0.000000   0.000000   0.000000
    7             0.000000   0.000000   0.000000   0.000000
    8             0.000000   0.000000   0.000000   0.000000
    9             1.000000   0.000000   0.000000   0.000000
   10             0.000000   0.991213   0.000000   0.000000
   11             0.000000  -0.132278   0.000000   0.000000
   12             0.000000   0.000000   0.991213   0.000000
   13             0.000000   0.000000  -0.132278   0.000000
   14             0.000000   0.000000   0.000000   1.000000
 EIGENVALUES ARE DIAGONAL OF 1E- H IN MO BASIS

 SYMMETRIES FOR INITIAL GUESS ORBITALS FOLLOW.   BOTH SET(S).
     5 ORBITALS ARE OCCUPIED (    1 CORE ORBITALS).
     2=AG       3=B3U      4=B2U      5=B1U      6=AG       7=AG       8=AG  
     9=B3U     10=B3G     11=B1G     12=B1U     13=B2U     14=B2G 

                              ----------------------
                              INITIAL GUESS ORBITALS
                              ----------------------

                              ASSIGNED OCCUPANCIES

                  2.000000   2.000000   2.000000   2.000000   2.000000
                  0.000000   0.000000   0.000000   0.000000   0.000000
                  0.000000   0.000000   0.000000   0.000000

                      1          2          3          4          5
                  -49.6499   -11.3618   -10.1549   -10.1549   -10.1549
                     AG         AG         B3U        B2U        B1U 
    1  NE 1  S    0.978318   0.107683  -0.000000  -0.000000  -0.000000
    2  NE 1  S   -0.096449   0.503890  -0.000000  -0.000000  -0.000000
    3  NE 1  S   -0.027572   0.571945  -0.000000  -0.000000  -0.000000
    4  NE 1  X    0.000000   0.000000   0.705554  -0.000000  -0.000000
    5  NE 1  Y    0.000000   0.000000  -0.000000   0.705554  -0.000000
    6  NE 1  Z    0.000000   0.000000  -0.000000  -0.000000   0.705554
    7  NE 1  X    0.000000   0.000000   0.445093  -0.000000  -0.000000
    8  NE 1  Y    0.000000   0.000000  -0.000000   0.445093  -0.000000
    9  NE 1  Z    0.000000   0.000000  -0.000000  -0.000000   0.445093
   10  NE 1 XX    0.000000   0.000000  -0.000000  -0.000000  -0.000000
   11  NE 1 YY    0.000000   0.000000  -0.000000  -0.000000  -0.000000
   12  NE 1 ZZ    0.000000   0.000000  -0.000000  -0.000000  -0.000000
   13  NE 1 XY    0.000000   0.000000  -0.000000  -0.000000  -0.000000
   14  NE 1 XZ    0.000000   0.000000  -0.000000  -0.000000  -0.000000
   15  NE 1 YZ    0.000000   0.000000  -0.000000  -0.000000  -0.000000

                      6          7          8          9         10
                   -6.3003    -4.9222    -4.9222    -6.5388    -4.9222
                     AG         AG         AG         B3U        B3G 
    1  NE 1  S    0.646896   0.000000   0.000000  -0.000000   0.000000
    2  NE 1  S    1.544253   0.000000   0.000000  -0.000000   0.000000
    3  NE 1  S   -1.517961   0.000000   0.000000  -0.000000   0.000000
    4  NE 1  X    0.000000   0.000000   0.000000  -0.899094   0.000000
    5  NE 1  Y    0.000000   0.000000   0.000000  -0.000000   0.000000
    6  NE 1  Z    0.000000   0.000000   0.000000  -0.000000   0.000000
    7  NE 1  X    0.000000   0.000000   0.000000   1.052648   0.000000
    8  NE 1  Y    0.000000   0.000000   0.000000  -0.000000   0.000000
    9  NE 1  Z    0.000000   0.000000   0.000000  -0.000000   0.000000
   10  NE 1 XX    0.000000  -0.500000   0.866025  -0.000000   0.000000
   11  NE 1 YY    0.000000  -0.500000  -0.866025  -0.000000   0.000000
   12  NE 1 ZZ    0.000000   1.000000   0.000000  -0.000000   0.000000
   13  NE 1 XY    0.000000   0.000000   0.000000  -0.000000   0.000000
   14  NE 1 XZ    0.000000   0.000000   0.000000  -0.000000   0.000000
   15  NE 1 YZ    0.000000   0.000000   0.000000  -0.000000   1.000000

                     11         12         13         14
                   -4.9222    -6.5388    -6.5388    -4.9222
                     B1G        B1U        B2U        B2G 
    1  NE 1  S    0.000000  -0.000000  -0.000000   0.000000
    2  NE 1  S    0.000000  -0.000000  -0.000000   0.000000
    3  NE 1  S    0.000000  -0.000000  -0.000000   0.000000
    4  NE 1  X    0.000000  -0.000000  -0.000000   0.000000
    5  NE 1  Y    0.000000  -0.000000  -0.899094   0.000000
    6  NE 1  Z    0.000000  -0.899094  -0.000000   0.000000
    7  NE 1  X    0.000000  -0.000000  -0.000000   0.000000
    8  NE 1  Y    0.000000  -0.000000   1.052648   0.000000
    9  NE 1  Z    0.000000   1.052648  -0.000000   0.000000
   10  NE 1 XX    0.000000  -0.000000  -0.000000   0.000000
   11  NE 1 YY    0.000000  -0.000000  -0.000000   0.000000
   12  NE 1 ZZ    0.000000  -0.000000  -0.000000   0.000000
   13  NE 1 XY    1.000000  -0.000000  -0.000000   0.000000
   14  NE 1 XZ    0.000000  -0.000000  -0.000000   1.000000
   15  NE 1 YZ    0.000000  -0.000000  -0.000000   0.000000
 ...... END OF INITIAL ORBITAL SELECTION ......
 STEP CPU TIME =     0.01 TOTAL CPU TIME =        0.0 (    0.0 MIN)
 TOTAL WALL CLOCK TIME=        0.0 SECONDS, CPU UTILIZATION IS  25.00%

                    ----------------------
                    AO INTEGRAL TECHNOLOGY
                    ----------------------
     S,P,L SHELL ROTATED AXIS INTEGRALS, REPROGRAMMED BY
        KAZUYA ISHIMURA (IMS) AND JOSE SIERRA (SYNSTAR).
     S,P,D,L SHELL ROTATED AXIS INTEGRALS PROGRAMMED BY
        KAZUYA ISHIMURA (INSTITUTE FOR MOLECULAR SCIENCE).
     S,P,D,F,G SHELL TO TOTAL QUARTET ANGULAR MOMENTUM SUM 5,
        ERIC PROGRAM BY GRAHAM FLETCHER (ELORET AND NASA ADVANCED
        SUPERCOMPUTING DIVISION, AMES RESEARCH CENTER).
     S,P,D,F,G,L SHELL GENERAL RYS QUADRATURE PROGRAMMED BY
        MICHEL DUPUIS (PACIFIC NORTHWEST NATIONAL LABORATORY).

          --------------------
          2 ELECTRON INTEGRALS
          --------------------

 THE -PK- OPTION IS OFF, THE INTEGRALS ARE NOT IN SUPERMATRIX FORM.
 STORING   15000 INTEGRALS/RECORD ON DISK, USING 12 BYTES/INTEGRAL.
 TWO ELECTRON INTEGRAL EVALUATION REQUIRES   90417 WORDS OF MEMORY.
 II,JST,KST,LST =  1  1  1  1 NREC =         1 INTLOC =    1
 II,JST,KST,LST =  2  1  1  1 NREC =         1 INTLOC =    2
 II,JST,KST,LST =  3  1  1  1 NREC =         1 INTLOC =    7
 II,JST,KST,LST =  4  1  1  1 NREC =         1 INTLOC =   22
 II,JST,KST,LST =  5  1  1  1 NREC =         1 INTLOC =   67
 II,JST,KST,LST =  6  1  1  1 NREC =         1 INTLOC =  214
 TOTAL NUMBER OF NONZERO TWO-ELECTRON INTEGRALS =                1188
          1 INTEGRAL RECORDS WERE STORED ON DISK FILE  8.
  ...... END OF TWO-ELECTRON INTEGRALS .....
 STEP CPU TIME =     0.03 TOTAL CPU TIME =        0.0 (    0.0 MIN)
 TOTAL WALL CLOCK TIME=        0.1 SECONDS, CPU UTILIZATION IS  40.00%

          --------------------------
                 RHF SCF CALCULATION
          --------------------------

     NUCLEAR ENERGY =         0.0000000000
     MAXIT =  200     NPUNCH=    2
     EXTRAP=T  DAMP=F  SHIFT=F  RSTRCT=F  DIIS=F  DEM=F  SOSCF=T
     DENSITY MATRIX CONV=  1.00E-06
     SOSCF WILL OPTIMIZE      45 ORBITAL ROTATIONS, SOGTOL=   0.250
     MEMORY REQUIRED FOR RHF ITERS=     31965 WORDS.

 ITER EX DEM     TOTAL ENERGY        E CHANGE  DENSITY CHANGE     ORB. GRAD
 *** START OF DEBUG OUTPUT FOR ITERATION                    1
 SKELETON FOCK MATRIX

                      1          2          3          4          5

    1  NE 1  S   17.234845
    2  NE 1  S   -4.712477  11.525693
    3  NE 1  S    2.740490   6.245864   7.741845
    4  NE 1  X    0.000000   0.000000   0.000000  11.323476
    5  NE 1  Y    0.000000   0.000000   0.000000   0.000000  11.323476
    6  NE 1  Z    0.000000   0.000000   0.000000   0.000000   0.000000
    7  NE 1  X    0.000000   0.000000   0.000000   4.006044   0.000000
    8  NE 1  Y    0.000000   0.000000   0.000000   0.000000   4.006044
    9  NE 1  Z    0.000000   0.000000   0.000000   0.000000   0.000000
   10  NE 1 XX    1.000962   6.190223   5.495967   0.000000   0.000000
   11  NE 1 YY    1.000962   6.190223   5.495967   0.000000   0.000000
   12  NE 1 ZZ    1.000962   6.190223   5.495967   0.000000   0.000000
   13  NE 1 XY    0.000000   0.000000   0.000000   0.000000   0.000000
   14  NE 1 XZ    0.000000   0.000000   0.000000   0.000000   0.000000
   15  NE 1 YZ    0.000000   0.000000   0.000000   0.000000   0.000000

                      6          7          8          9         10

    6  NE 1  Z   11.323476
    7  NE 1  X    0.000000   6.028917
    8  NE 1  Y    0.000000   0.000000   6.028917
    9  NE 1  Z    4.006044   0.000000   0.000000   6.028917
   10  NE 1 XX    0.000000   0.000000   0.000000   0.000000   9.529661
   11  NE 1 YY    0.000000   0.000000   0.000000   0.000000   2.767312
   12  NE 1 ZZ    0.000000   0.000000   0.000000   0.000000   2.767312
   13  NE 1 XY    0.000000   0.000000   0.000000   0.000000   0.000000
   14  NE 1 XZ    0.000000   0.000000   0.000000   0.000000   0.000000
   15  NE 1 YZ    0.000000   0.000000   0.000000   0.000000   0.000000

                     11         12         13         14         15

   11  NE 1 YY    9.529661
   12  NE 1 ZZ    2.767312   9.529661
   13  NE 1 XY    0.000000   0.000000  10.143525
   14  NE 1 XZ    0.000000   0.000000   0.000000  10.143525
   15  NE 1 YZ    0.000000   0.000000   0.000000   0.000000  10.143525
 SYMMETRIZED FOCK OPERATOR

                      1          2          3          4          5

    1  NE 1  S   17.234845
    2  NE 1  S   -4.712477  11.525693
    3  NE 1  S    2.740490   6.245864   7.741845
    4  NE 1  X    0.000000   0.000000   0.000000  11.323476
    5  NE 1  Y    0.000000   0.000000   0.000000   0.000000  11.323476
    6  NE 1  Z    0.000000   0.000000   0.000000   0.000000   0.000000
    7  NE 1  X    0.000000   0.000000   0.000000   4.006044   0.000000
    8  NE 1  Y    0.000000   0.000000   0.000000   0.000000   4.006044
    9  NE 1  Z    0.000000   0.000000   0.000000   0.000000   0.000000
   10  NE 1 XX    1.000962   6.190223   5.495967   0.000000   0.000000
   11  NE 1 YY    1.000962   6.190223   5.495967   0.000000   0.000000
   12  NE 1 ZZ    1.000962   6.190223   5.495967   0.000000   0.000000
   13  NE 1 XY    0.000000   0.000000   0.000000   0.000000   0.000000
   14  NE 1 XZ    0.000000   0.000000   0.000000   0.000000   0.000000
   15  NE 1 YZ    0.000000   0.000000   0.000000   0.000000   0.000000

                      6          7          8          9         10

    6  NE 1  Z   11.323476
    7  NE 1  X    0.000000   6.028917
    8  NE 1  Y    0.000000   0.000000   6.028917
    9  NE 1  Z    4.006044   0.000000   0.000000   6.028917
   10  NE 1 XX    0.000000   0.000000   0.000000   0.000000   9.529661
   11  NE 1 YY    0.000000   0.000000   0.000000   0.000000   2.767312
   12  NE 1 ZZ    0.000000   0.000000   0.000000   0.000000   2.767312
   13  NE 1 XY    0.000000   0.000000   0.000000   0.000000   0.000000
   14  NE 1 XZ    0.000000   0.000000   0.000000   0.000000   0.000000
   15  NE 1 YZ    0.000000   0.000000   0.000000   0.000000   0.000000

                     11         12         13         14         15

   11  NE 1 YY    9.529661
   12  NE 1 ZZ    2.767312   9.529661
   13  NE 1 XY    0.000000   0.000000  10.143525
   14  NE 1 XZ    0.000000   0.000000   0.000000  10.143525
   15  NE 1 YZ    0.000000   0.000000   0.000000   0.000000  10.143525

 EHF1 =     -73.931660503388 EHF2 =    -182.952727472929 EHF =    -128.442193988158
 TOTAL FOCK OPERATOR

                      1          2          3          4          5

    1  NE 1  S  -32.673003
    2  NE 1  S    6.923682  -2.794151
    3  NE 1  S   -6.343356  -0.498623  -2.662797
    4  NE 1  X    0.000000   0.000000   0.000000  -0.399769
    5  NE 1  Y    0.000000   0.000000   0.000000   0.000000  -0.399769
    6  NE 1  Z    0.000000   0.000000   0.000000   0.000000   0.000000
    7  NE 1  X    0.000000   0.000000   0.000000  -1.006125   0.000000
    8  NE 1  Y    0.000000   0.000000   0.000000   0.000000  -1.006125
    9  NE 1  Z    0.000000   0.000000   0.000000   0.000000   0.000000
   10  NE 1 XX   -2.736057  -0.652992  -1.736069   0.000000   0.000000
   11  NE 1 YY   -2.736057  -0.652992  -1.736069   0.000000   0.000000
   12  NE 1 ZZ   -2.736057  -0.652992  -1.736069   0.000000   0.000000
   13  NE 1 XY    0.000000   0.000000   0.000000   0.000000   0.000000
   14  NE 1 XZ    0.000000   0.000000   0.000000   0.000000   0.000000
   15  NE 1 YZ    0.000000   0.000000   0.000000   0.000000   0.000000

                      6          7          8          9         10

    6  NE 1  Z   -0.399769
    7  NE 1  X    0.000000   0.118285
    8  NE 1  Y    0.000000   0.000000   0.118285
    9  NE 1  Z   -1.006125   0.000000   0.000000   0.118285
   10  NE 1 XX    0.000000   0.000000   0.000000   0.000000   1.671415
   11  NE 1 YY    0.000000   0.000000   0.000000   0.000000  -1.809437
   12  NE 1 ZZ    0.000000   0.000000   0.000000   0.000000  -1.809437
   13  NE 1 XY    0.000000   0.000000   0.000000   0.000000   0.000000
   14  NE 1 XZ    0.000000   0.000000   0.000000   0.000000   0.000000
   15  NE 1 YZ    0.000000   0.000000   0.000000   0.000000   0.000000

                     11         12         13         14         15

   11  NE 1 YY    1.671415
   12  NE 1 ZZ   -1.809437   1.671415
   13  NE 1 XY    0.000000   0.000000   5.221278
   14  NE 1 XZ    0.000000   0.000000   0.000000   5.221278
   15  NE 1 YZ    0.000000   0.000000   0.000000   0.000000   5.221278
 LAGRANGE MULTIPLIER MATRIX

             1           2           3           4           5

    1  -64.5331386  -6.8383207   0.0000000   0.0000000   0.0000000
    2   -6.8383207  -4.5535465   0.0000000   0.0000000   0.0000000
    3    0.0000000   0.0000000  -1.6149918   0.0000000   0.0000000
    4    0.0000000   0.0000000   0.0000000  -1.6149918   0.0000000
    5    0.0000000   0.0000000   0.0000000   0.0000000  -1.6149918
    6   -1.7267403  -0.1985846   0.0000000   0.0000000   0.0000000
    7    0.0000000   0.0000000   0.0000000   0.0000000   0.0000000
    8   -0.0000000   0.0000000   0.0000000   0.0000000   0.0000000
    9    0.0000000   0.0000000  -0.0712020   0.0000000   0.0000000
   10    0.0000000   0.0000000   0.0000000   0.0000000   0.0000000
   11    0.0000000   0.0000000   0.0000000   0.0000000   0.0000000
   12    0.0000000   0.0000000   0.0000000   0.0000000  -0.0712020
   13    0.0000000   0.0000000   0.0000000  -0.0712020   0.0000000
   14    0.0000000   0.0000000   0.0000000   0.0000000   0.0000000
 NEW ORBITALS

                      1          2          3          4          5

                  -32.6731    -1.8919    -0.8080    -0.8080    -0.8080

    1  NE 1  S   -1.000053  -0.002109   0.000000   0.000000   0.000000
    2  NE 1  S    0.000946   0.512310   0.000000   0.000000   0.000000
    3  NE 1  S    0.001295   0.570660   0.000000   0.000000   0.000000
    4  NE 1  X    0.000000   0.000000   0.000000   0.000000   0.692785
    5  NE 1  Y    0.000000   0.000000   0.000000   0.692785   0.000000
    6  NE 1  Z    0.000000   0.000000   0.692785   0.000000   0.000000
    7  NE 1  X    0.000000   0.000000   0.000000   0.000000   0.459916
    8  NE 1  Y    0.000000   0.000000   0.000000   0.459916   0.000000
    9  NE 1  Z    0.000000   0.000000   0.459916   0.000000   0.000000
   10  NE 1 XX    0.000000   0.000000   0.000000   0.000000   0.000000
   11  NE 1 YY    0.000000   0.000000   0.000000   0.000000   0.000000
   12  NE 1 ZZ    0.000000   0.000000   0.000000   0.000000   0.000000
   13  NE 1 XY    0.000000   0.000000   0.000000   0.000000   0.000000
   14  NE 1 XZ    0.000000   0.000000   0.000000   0.000000   0.000000
   15  NE 1 YZ    0.000000   0.000000   0.000000   0.000000   0.000000

                      6          7          8          9         10

                    1.7129     1.7129     1.7129     2.1786     5.2213

    1  NE 1  S    0.000000   0.000000   0.000000   0.622146   0.000000
    2  NE 1  S    0.000000   0.000000   0.000000   1.544494   0.000000
    3  NE 1  S    0.000000   0.000000   0.000000  -1.518695   0.000000
    4  NE 1  X    0.908969   0.000000   0.000000   0.000000   0.000000
    5  NE 1  Y    0.000000   0.908969   0.000000   0.000000   0.000000
    6  NE 1  Z    0.000000   0.000000   0.908969   0.000000   0.000000
    7  NE 1  X   -1.046257   0.000000   0.000000   0.000000   0.000000
    8  NE 1  Y    0.000000  -1.046257   0.000000   0.000000   0.000000
    9  NE 1  Z    0.000000   0.000000  -1.046257   0.000000   0.000000
   10  NE 1 XX    0.000000   0.000000   0.000000   0.000000  -0.500000
   11  NE 1 YY    0.000000   0.000000   0.000000   0.000000  -0.500000
   12  NE 1 ZZ    0.000000   0.000000   0.000000   0.000000   1.000000
   13  NE 1 XY    0.000000   0.000000   0.000000   0.000000   0.000000
   14  NE 1 XZ    0.000000   0.000000   0.000000   0.000000   0.000000
   15  NE 1 YZ    0.000000   0.000000   0.000000   0.000000   0.000000

                     11         12         13         14

                    5.2213     5.2213     5.2213     5.2213

    1  NE 1  S    0.000000   0.000000   0.000000   0.000000
    2  NE 1  S    0.000000   0.000000   0.000000   0.000000
    3  NE 1  S    0.000000   0.000000   0.000000   0.000000
    4  NE 1  X    0.000000   0.000000   0.000000   0.000000
    5  NE 1  Y    0.000000   0.000000   0.000000   0.000000
    6  NE 1  Z    0.000000   0.000000   0.000000   0.000000
    7  NE 1  X    0.000000   0.000000   0.000000   0.000000
    8  NE 1  Y    0.000000   0.000000   0.000000   0.000000
    9  NE 1  Z    0.000000   0.000000   0.000000   0.000000
   10  NE 1 XX    0.000000   0.866025   0.000000   0.000000
   11  NE 1 YY    0.000000  -0.866025   0.000000   0.000000
   12  NE 1 ZZ    0.000000   0.000000   0.000000   0.000000
   13  NE 1 XY    1.000000   0.000000   0.000000   0.000000
   14  NE 1 XZ    0.000000   0.000000   0.000000   1.000000
   15  NE 1 YZ    0.000000   0.000000   1.000000   0.000000
 NEW DENSITY MATRIX

                      1          2          3          4          5

    1  NE 1  S    2.000221
    2  NE 1  S   -0.004053   0.524926
    3  NE 1  S   -0.004998   0.584712   0.651308
    4  NE 1  X    0.000000   0.000000   0.000000   0.959902
    5  NE 1  Y    0.000000   0.000000   0.000000   0.000000   0.959902
    6  NE 1  Z    0.000000   0.000000   0.000000   0.000000   0.000000
    7  NE 1  X    0.000000   0.000000   0.000000   0.637246   0.000000
    8  NE 1  Y    0.000000   0.000000   0.000000   0.000000   0.637246
    9  NE 1  Z    0.000000   0.000000   0.000000   0.000000   0.000000
   10  NE 1 XX    0.000000   0.000000   0.000000   0.000000   0.000000
   11  NE 1 YY    0.000000   0.000000   0.000000   0.000000   0.000000
   12  NE 1 ZZ    0.000000   0.000000   0.000000   0.000000   0.000000
   13  NE 1 XY    0.000000   0.000000   0.000000   0.000000   0.000000
   14  NE 1 XZ    0.000000   0.000000   0.000000   0.000000   0.000000
   15  NE 1 YZ    0.000000   0.000000   0.000000   0.000000   0.000000

                      6          7          8          9         10

    6  NE 1  Z    0.959902
    7  NE 1  X    0.000000   0.423046
    8  NE 1  Y    0.000000   0.000000   0.423046
    9  NE 1  Z    0.637246   0.000000   0.000000   0.423046
   10  NE 1 XX    0.000000   0.000000   0.000000   0.000000   0.000000
   11  NE 1 YY    0.000000   0.000000   0.000000   0.000000   0.000000
   12  NE 1 ZZ    0.000000   0.000000   0.000000   0.000000   0.000000
   13  NE 1 XY    0.000000   0.000000   0.000000   0.000000   0.000000
   14  NE 1 XZ    0.000000   0.000000   0.000000   0.000000   0.000000
   15  NE 1 YZ    0.000000   0.000000   0.000000   0.000000   0.000000

                     11         12         13         14         15

   11  NE 1 YY    0.000000
   12  NE 1 ZZ    0.000000   0.000000
   13  NE 1 XY    0.000000   0.000000   0.000000
   14  NE 1 XZ    0.000000   0.000000   0.000000   0.000000
   15  NE 1 YZ    0.000000   0.000000   0.000000   0.000000   0.000000
 *** END OF DEBUG OUTPUT FOR ITERATION                    1
   1  0  0     -128.4421939882  -128.4421939882   0.076141074   0.000000000
 *** START OF DEBUG OUTPUT FOR ITERATION                    2
 SKELETON FOCK MATRIX

                      1          2          3          4          5

    1  NE 1  S   17.104583
    2  NE 1  S   -4.692213  11.474611
    3  NE 1  S    2.719457   6.217165   7.711657
    4  NE 1  X    0.000000   0.000000   0.000000  11.276651
    5  NE 1  Y    0.000000   0.000000   0.000000   0.000000  11.276651
    6  NE 1  Z    0.000000   0.000000   0.000000   0.000000   0.000000
    7  NE 1  X    0.000000   0.000000   0.000000   3.989372   0.000000
    8  NE 1  Y    0.000000   0.000000   0.000000   0.000000   3.989372
    9  NE 1  Z    0.000000   0.000000   0.000000   0.000000   0.000000
   10  NE 1 XX    0.987842   6.164288   5.471927   0.000000   0.000000
   11  NE 1 YY    0.987842   6.164288   5.471927   0.000000   0.000000
   12  NE 1 ZZ    0.987842   6.164288   5.471927   0.000000   0.000000
   13  NE 1 XY    0.000000   0.000000   0.000000   0.000000   0.000000
   14  NE 1 XZ    0.000000   0.000000   0.000000   0.000000   0.000000
   15  NE 1 YZ    0.000000   0.000000   0.000000   0.000000   0.000000

                      6          7          8          9         10

    6  NE 1  Z   11.276651
    7  NE 1  X    0.000000   6.010309
    8  NE 1  Y    0.000000   0.000000   6.010309
    9  NE 1  Z    3.989372   0.000000   0.000000   6.010309
   10  NE 1 XX    0.000000   0.000000   0.000000   0.000000   9.491130
   11  NE 1 YY    0.000000   0.000000   0.000000   0.000000   2.754618
   12  NE 1 ZZ    0.000000   0.000000   0.000000   0.000000   2.754618
   13  NE 1 XY    0.000000   0.000000   0.000000   0.000000   0.000000
   14  NE 1 XZ    0.000000   0.000000   0.000000   0.000000   0.000000
   15  NE 1 YZ    0.000000   0.000000   0.000000   0.000000   0.000000

                     11         12         13         14         15

   11  NE 1 YY    9.491130
   12  NE 1 ZZ    2.754618   9.491130
   13  NE 1 XY    0.000000   0.000000  10.104767
   14  NE 1 XZ    0.000000   0.000000   0.000000  10.104767
   15  NE 1 YZ    0.000000   0.000000   0.000000   0.000000  10.104767
 SYMMETRIZED FOCK OPERATOR

                      1          2          3          4          5

    1  NE 1  S   17.104583
    2  NE 1  S   -4.692213  11.474611
    3  NE 1  S    2.719457   6.217165   7.711657
    4  NE 1  X    0.000000   0.000000   0.000000  11.276651
    5  NE 1  Y    0.000000   0.000000   0.000000   0.000000  11.276651
    6  NE 1  Z    0.000000   0.000000   0.000000   0.000000   0.000000
    7  NE 1  X    0.000000   0.000000   0.000000   3.989372   0.000000
    8  NE 1  Y    0.000000   0.000000   0.000000   0.000000   3.989372
    9  NE 1  Z    0.000000   0.000000   0.000000   0.000000   0.000000
   10  NE 1 XX    0.987842   6.164288   5.471927   0.000000   0.000000
   11  NE 1 YY    0.987842   6.164288   5.471927   0.000000   0.000000
   12  NE 1 ZZ    0.987842   6.164288   5.471927   0.000000   0.000000
   13  NE 1 XY    0.000000   0.000000   0.000000   0.000000   0.000000
   14  NE 1 XZ    0.000000   0.000000   0.000000   0.000000   0.000000
   15  NE 1 YZ    0.000000   0.000000   0.000000   0.000000   0.000000

                      6          7          8          9         10

    6  NE 1  Z   11.276651
    7  NE 1  X    0.000000   6.010309
    8  NE 1  Y    0.000000   0.000000   6.010309
    9  NE 1  Z    3.989372   0.000000   0.000000   6.010309
   10  NE 1 XX    0.000000   0.000000   0.000000   0.000000   9.491130
   11  NE 1 YY    0.000000   0.000000   0.000000   0.000000   2.754618
   12  NE 1 ZZ    0.000000   0.000000   0.000000   0.000000   2.754618
   13  NE 1 XY    0.000000   0.000000   0.000000   0.000000   0.000000
   14  NE 1 XZ    0.000000   0.000000   0.000000   0.000000   0.000000
   15  NE 1 YZ    0.000000   0.000000   0.000000   0.000000   0.000000

                     11         12         13         14         15

   11  NE 1 YY    9.491130
   12  NE 1 ZZ    2.754618   9.491130
   13  NE 1 XY    0.000000   0.000000  10.104767
   14  NE 1 XZ    0.000000   0.000000   0.000000  10.104767
   15  NE 1 YZ    0.000000   0.000000   0.000000   0.000000  10.104767

 EHF1 =     -74.540797218330 EHF2 =    -182.435701151722 EHF =    -128.488249185026
 TOTAL FOCK OPERATOR

                      1          2          3          4          5

    1  NE 1  S  -32.803265
    2  NE 1  S    6.943946  -2.845232
    3  NE 1  S   -6.364389  -0.527322  -2.692986
    4  NE 1  X    0.000000   0.000000   0.000000  -0.446594
    5  NE 1  Y    0.000000   0.000000   0.000000   0.000000  -0.446594
    6  NE 1  Z    0.000000   0.000000   0.000000   0.000000   0.000000
    7  NE 1  X    0.000000   0.000000   0.000000  -1.022797   0.000000
    8  NE 1  Y    0.000000   0.000000   0.000000   0.000000  -1.022797
    9  NE 1  Z    0.000000   0.000000   0.000000   0.000000   0.000000
   10  NE 1 XX   -2.749177  -0.678928  -1.760110   0.000000   0.000000
   11  NE 1 YY   -2.749177  -0.678928  -1.760110   0.000000   0.000000
   12  NE 1 ZZ   -2.749177  -0.678928  -1.760110   0.000000   0.000000
   13  NE 1 XY    0.000000   0.000000   0.000000   0.000000   0.000000
   14  NE 1 XZ    0.000000   0.000000   0.000000   0.000000   0.000000
   15  NE 1 YZ    0.000000   0.000000   0.000000   0.000000   0.000000

                      6          7          8          9         10

    6  NE 1  Z   -0.446594
    7  NE 1  X    0.000000   0.099677
    8  NE 1  Y    0.000000   0.000000   0.099677
    9  NE 1  Z   -1.022797   0.000000   0.000000   0.099677
   10  NE 1 XX    0.000000   0.000000   0.000000   0.000000   1.632883
   11  NE 1 YY    0.000000   0.000000   0.000000   0.000000  -1.822131
   12  NE 1 ZZ    0.000000   0.000000   0.000000   0.000000  -1.822131
   13  NE 1 XY    0.000000   0.000000   0.000000   0.000000   0.000000
   14  NE 1 XZ    0.000000   0.000000   0.000000   0.000000   0.000000
   15  NE 1 YZ    0.000000   0.000000   0.000000   0.000000   0.000000

                     11         12         13         14         15

   11  NE 1 YY    1.632883
   12  NE 1 ZZ   -1.822131   1.632883
   13  NE 1 XY    0.000000   0.000000   5.182521
   14  NE 1 XZ    0.000000   0.000000   0.000000   5.182521
   15  NE 1 YZ    0.000000   0.000000   0.000000   0.000000   5.182521
 LAGRANGE MULTIPLIER MATRIX

             1           2           3           4           5

    1  -65.6067909   0.0025298   0.0000000   0.0000000   0.0000000
    2    0.0025298  -3.8638100   0.0000000   0.0000000   0.0000000
    3    0.0000000   0.0000000  -1.6900654   0.0000000   0.0000000
    4    0.0000000   0.0000000   0.0000000  -1.6900654   0.0000000
    5    0.0000000   0.0000000   0.0000000   0.0000000  -1.6900654
    6    0.0000000   0.0000000   0.0000000   0.0000000  -0.0308351
    7    0.0000000   0.0000000   0.0000000  -0.0308351   0.0000000
    8    0.0000000   0.0000000  -0.0308351   0.0000000   0.0000000
    9    0.0355311  -0.0363847   0.0000000   0.0000000   0.0000000
   10   -0.0000000   0.0000000   0.0000000   0.0000000   0.0000000
   11    0.0000000   0.0000000   0.0000000   0.0000000   0.0000000
   12    0.0000000   0.0000000   0.0000000   0.0000000   0.0000000
   13    0.0000000   0.0000000   0.0000000   0.0000000   0.0000000
   14    0.0000000   0.0000000   0.0000000   0.0000000   0.0000000
          ---------------START SECOND ORDER SCF---------------
 NEW ORBITALS

                      1          2          3          4          5

                  -32.6731    -1.8919    -0.8080    -0.8080    -0.8080

    1  NE 1  S   -1.000370   0.000669   0.000000   0.000000   0.000000
    2  NE 1  S    0.000159   0.519208   0.000000   0.000000   0.000000
    3  NE 1  S    0.002070   0.563866   0.000000   0.000000   0.000000
    4  NE 1  X    0.000000   0.000000   0.000000   0.000000   0.698331
    5  NE 1  Y    0.000000   0.000000   0.000000   0.698331   0.000000
    6  NE 1  Z    0.000000   0.000000   0.698331   0.000000   0.000000
    7  NE 1  X    0.000000   0.000000   0.000000   0.000000   0.453509
    8  NE 1  Y    0.000000   0.000000   0.000000   0.453509   0.000000
    9  NE 1  Z    0.000000   0.000000   0.453509   0.000000   0.000000
   10  NE 1 XX    0.000000   0.000000   0.000000   0.000000   0.000000
   11  NE 1 YY    0.000000   0.000000   0.000000   0.000000   0.000000
   12  NE 1 ZZ    0.000000   0.000000   0.000000   0.000000   0.000000
   13  NE 1 XY    0.000000   0.000000   0.000000   0.000000   0.000000
   14  NE 1 XZ    0.000000   0.000000   0.000000   0.000000   0.000000
   15  NE 1 YZ    0.000000   0.000000   0.000000   0.000000   0.000000

                      6          7          8          9         10

                    1.7129     1.7129     1.7129     2.1786     5.2213

    1  NE 1  S    0.000000   0.000000   0.000000   0.621639   0.000000
    2  NE 1  S    0.000000   0.000000   0.000000   1.542190   0.000000
    3  NE 1  S    0.000000   0.000000   0.000000  -1.521229   0.000000
    4  NE 1  X    0.904715   0.000000   0.000000   0.000000   0.000000
    5  NE 1  Y    0.000000   0.904715   0.000000   0.000000   0.000000
    6  NE 1  Z    0.000000   0.000000   0.904715   0.000000   0.000000
    7  NE 1  X   -1.049050   0.000000   0.000000   0.000000   0.000000
    8  NE 1  Y    0.000000  -1.049050   0.000000   0.000000   0.000000
    9  NE 1  Z    0.000000   0.000000  -1.049050   0.000000   0.000000
   10  NE 1 XX    0.000000   0.000000   0.000000   0.000000  -0.500000
   11  NE 1 YY    0.000000   0.000000   0.000000   0.000000  -0.500000
   12  NE 1 ZZ    0.000000   0.000000   0.000000   0.000000   1.000000
   13  NE 1 XY    0.000000   0.000000   0.000000   0.000000   0.000000
   14  NE 1 XZ    0.000000   0.000000   0.000000   0.000000   0.000000
   15  NE 1 YZ    0.000000   0.000000   0.000000   0.000000   0.000000

                     11         12         13         14

                    5.2213     5.2213     5.2213     5.2213

    1  NE 1  S    0.000000   0.000000   0.000000   0.000000
    2  NE 1  S    0.000000   0.000000   0.000000   0.000000
    3  NE 1  S    0.000000   0.000000   0.000000   0.000000
    4  NE 1  X    0.000000   0.000000   0.000000   0.000000
    5  NE 1  Y    0.000000   0.000000   0.000000   0.000000
    6  NE 1  Z    0.000000   0.000000   0.000000   0.000000
    7  NE 1  X    0.000000   0.000000   0.000000   0.000000
    8  NE 1  Y    0.000000   0.000000   0.000000   0.000000
    9  NE 1  Z    0.000000   0.000000   0.000000   0.000000
   10  NE 1 XX    0.000000   0.866025   0.000000   0.000000
   11  NE 1 YY    0.000000  -0.866025   0.000000   0.000000
   12  NE 1 ZZ    0.000000   0.000000   0.000000   0.000000
   13  NE 1 XY    1.000000   0.000000   0.000000   0.000000
   14  NE 1 XZ    0.000000   0.000000   0.000000   1.000000
   15  NE 1 YZ    0.000000   0.000000   1.000000   0.000000
 NEW DENSITY MATRIX

                      1          2          3          4          5

    1  NE 1  S    2.001481
    2  NE 1  S    0.000377   0.539154
    3  NE 1  S   -0.003386   0.585529   0.635899
    4  NE 1  X    0.000000   0.000000   0.000000   0.975333
    5  NE 1  Y    0.000000   0.000000   0.000000   0.000000   0.975333
    6  NE 1  Z    0.000000   0.000000   0.000000   0.000000   0.000000
    7  NE 1  X    0.000000   0.000000   0.000000   0.633399   0.000000
    8  NE 1  Y    0.000000   0.000000   0.000000   0.000000   0.633399
    9  NE 1  Z    0.000000   0.000000   0.000000   0.000000   0.000000
   10  NE 1 XX    0.000000   0.000000   0.000000   0.000000   0.000000
   11  NE 1 YY    0.000000   0.000000   0.000000   0.000000   0.000000
   12  NE 1 ZZ    0.000000   0.000000   0.000000   0.000000   0.000000
   13  NE 1 XY    0.000000   0.000000   0.000000   0.000000   0.000000
   14  NE 1 XZ    0.000000   0.000000   0.000000   0.000000   0.000000
   15  NE 1 YZ    0.000000   0.000000   0.000000   0.000000   0.000000

                      6          7          8          9         10

    6  NE 1  Z    0.975333
    7  NE 1  X    0.000000   0.411340
    8  NE 1  Y    0.000000   0.000000   0.411340
    9  NE 1  Z    0.633399   0.000000   0.000000   0.411340
   10  NE 1 XX    0.000000   0.000000   0.000000   0.000000   0.000000
   11  NE 1 YY    0.000000   0.000000   0.000000   0.000000   0.000000
   12  NE 1 ZZ    0.000000   0.000000   0.000000   0.000000   0.000000
   13  NE 1 XY    0.000000   0.000000   0.000000   0.000000   0.000000
   14  NE 1 XZ    0.000000   0.000000   0.000000   0.000000   0.000000
   15  NE 1 YZ    0.000000   0.000000   0.000000   0.000000   0.000000

                     11         12         13         14         15

   11  NE 1 YY    0.000000
   12  NE 1 ZZ    0.000000   0.000000
   13  NE 1 XY    0.000000   0.000000   0.000000
   14  NE 1 XZ    0.000000   0.000000   0.000000   0.000000
   15  NE 1 YZ    0.000000   0.000000   0.000000   0.000000   0.000000
 *** END OF DEBUG OUTPUT FOR ITERATION                    2
   2  1  0     -128.4882491850    -0.0460551969   0.015430789   0.018192326
 *** START OF DEBUG OUTPUT FOR ITERATION                    3
 SKELETON FOCK MATRIX

                      1          2          3          4          5

    1  NE 1  S   17.159791
    2  NE 1  S   -4.708026  11.500336
    3  NE 1  S    2.727997   6.229833   7.727681
    4  NE 1  X    0.000000   0.000000   0.000000  11.300010
    5  NE 1  Y    0.000000   0.000000   0.000000   0.000000  11.300010
    6  NE 1  Z    0.000000   0.000000   0.000000   0.000000   0.000000
    7  NE 1  X    0.000000   0.000000   0.000000   3.998152   0.000000
    8  NE 1  Y    0.000000   0.000000   0.000000   0.000000   3.998152
    9  NE 1  Z    0.000000   0.000000   0.000000   0.000000   0.000000
   10  NE 1 XX    0.990454   6.176338   5.483524   0.000000   0.000000
   11  NE 1 YY    0.990454   6.176338   5.483524   0.000000   0.000000
   12  NE 1 ZZ    0.990454   6.176338   5.483524   0.000000   0.000000
   13  NE 1 XY    0.000000   0.000000   0.000000   0.000000   0.000000
   14  NE 1 XZ    0.000000   0.000000   0.000000   0.000000   0.000000
   15  NE 1 YZ    0.000000   0.000000   0.000000   0.000000   0.000000

                      6          7          8          9         10

    6  NE 1  Z   11.300010
    7  NE 1  X    0.000000   6.019881
    8  NE 1  Y    0.000000   0.000000   6.019881
    9  NE 1  Z    3.998152   0.000000   0.000000   6.019881
   10  NE 1 XX    0.000000   0.000000   0.000000   0.000000   9.510125
   11  NE 1 YY    0.000000   0.000000   0.000000   0.000000   2.759870
   12  NE 1 ZZ    0.000000   0.000000   0.000000   0.000000   2.759870
   13  NE 1 XY    0.000000   0.000000   0.000000   0.000000   0.000000
   14  NE 1 XZ    0.000000   0.000000   0.000000   0.000000   0.000000
   15  NE 1 YZ    0.000000   0.000000   0.000000   0.000000   0.000000

                     11         12         13         14         15

   11  NE 1 YY    9.510125
   12  NE 1 ZZ    2.759870   9.510125
   13  NE 1 XY    0.000000   0.000000  10.125383
   14  NE 1 XZ    0.000000   0.000000   0.000000  10.125383
   15  NE 1 YZ    0.000000   0.000000   0.000000   0.000000  10.125383
 SYMMETRIZED FOCK OPERATOR

                      1          2          3          4          5

    1  NE 1  S   17.159791
    2  NE 1  S   -4.708026  11.500336
    3  NE 1  S    2.727997   6.229833   7.727681
    4  NE 1  X    0.000000   0.000000   0.000000  11.300010
    5  NE 1  Y    0.000000   0.000000   0.000000   0.000000  11.300010
    6  NE 1  Z    0.000000   0.000000   0.000000   0.000000   0.000000
    7  NE 1  X    0.000000   0.000000   0.000000   3.998152   0.000000
    8  NE 1  Y    0.000000   0.000000   0.000000   0.000000   3.998152
    9  NE 1  Z    0.000000   0.000000   0.000000   0.000000   0.000000
   10  NE 1 XX    0.990454   6.176338   5.483524   0.000000   0.000000
   11  NE 1 YY    0.990454   6.176338   5.483524   0.000000   0.000000
   12  NE 1 ZZ    0.990454   6.176338   5.483524   0.000000   0.000000
   13  NE 1 XY    0.000000   0.000000   0.000000   0.000000   0.000000
   14  NE 1 XZ    0.000000   0.000000   0.000000   0.000000   0.000000
   15  NE 1 YZ    0.000000   0.000000   0.000000   0.000000   0.000000

                      6          7          8          9         10

    6  NE 1  Z   11.300010
    7  NE 1  X    0.000000   6.019881
    8  NE 1  Y    0.000000   0.000000   6.019881
    9  NE 1  Z    3.998152   0.000000   0.000000   6.019881
   10  NE 1 XX    0.000000   0.000000   0.000000   0.000000   9.510125
   11  NE 1 YY    0.000000   0.000000   0.000000   0.000000   2.759870
   12  NE 1 ZZ    0.000000   0.000000   0.000000   0.000000   2.759870
   13  NE 1 XY    0.000000   0.000000   0.000000   0.000000   0.000000
   14  NE 1 XZ    0.000000   0.000000   0.000000   0.000000   0.000000
   15  NE 1 YZ    0.000000   0.000000   0.000000   0.000000   0.000000

                     11         12         13         14         15

   11  NE 1 YY    9.510125
   12  NE 1 ZZ    2.759870   9.510125
   13  NE 1 XY    0.000000   0.000000  10.125383
   14  NE 1 XZ    0.000000   0.000000   0.000000  10.125383
   15  NE 1 YZ    0.000000   0.000000   0.000000   0.000000  10.125383

 EHF1 =     -74.278691454254 EHF2 =    -182.698655169998 EHF =    -128.488673312126
 TOTAL FOCK OPERATOR

                      1          2          3          4          5

    1  NE 1  S  -32.748058
    2  NE 1  S    6.928134  -2.819507
    3  NE 1  S   -6.355849  -0.514654  -2.676962
    4  NE 1  X    0.000000   0.000000   0.000000  -0.423236
    5  NE 1  Y    0.000000   0.000000   0.000000   0.000000  -0.423236
    6  NE 1  Z    0.000000   0.000000   0.000000   0.000000   0.000000
    7  NE 1  X    0.000000   0.000000   0.000000  -1.014017   0.000000
    8  NE 1  Y    0.000000   0.000000   0.000000   0.000000  -1.014017
    9  NE 1  Z    0.000000   0.000000   0.000000   0.000000   0.000000
   10  NE 1 XX   -2.746565  -0.666877  -1.748512   0.000000   0.000000
   11  NE 1 YY   -2.746565  -0.666877  -1.748512   0.000000   0.000000
   12  NE 1 ZZ   -2.746565  -0.666877  -1.748512   0.000000   0.000000
   13  NE 1 XY    0.000000   0.000000   0.000000   0.000000   0.000000
   14  NE 1 XZ    0.000000   0.000000   0.000000   0.000000   0.000000
   15  NE 1 YZ    0.000000   0.000000   0.000000   0.000000   0.000000

                      6          7          8          9         10

    6  NE 1  Z   -0.423236
    7  NE 1  X    0.000000   0.109250
    8  NE 1  Y    0.000000   0.000000   0.109250
    9  NE 1  Z   -1.014017   0.000000   0.000000   0.109250
   10  NE 1 XX    0.000000   0.000000   0.000000   0.000000   1.651879
   11  NE 1 YY    0.000000   0.000000   0.000000   0.000000  -1.816879
   12  NE 1 ZZ    0.000000   0.000000   0.000000   0.000000  -1.816879
   13  NE 1 XY    0.000000   0.000000   0.000000   0.000000   0.000000
   14  NE 1 XZ    0.000000   0.000000   0.000000   0.000000   0.000000
   15  NE 1 YZ    0.000000   0.000000   0.000000   0.000000   0.000000

                     11         12         13         14         15

   11  NE 1 YY    1.651879
   12  NE 1 ZZ   -1.816879   1.651879
   13  NE 1 XY    0.000000   0.000000   5.203136
   14  NE 1 XZ    0.000000   0.000000   0.000000   5.203136
   15  NE 1 YZ    0.000000   0.000000   0.000000   0.000000   5.203136
 LAGRANGE MULTIPLIER MATRIX

             1           2           3           4           5

    1  -65.4963722   0.0093370   0.0000000   0.0000000   0.0000000
    2    0.0093370  -3.8250866   0.0000000   0.0000000   0.0000000
    3    0.0000000   0.0000000  -1.6524109   0.0000000   0.0000000
    4    0.0000000   0.0000000   0.0000000  -1.6524109   0.0000000
    5    0.0000000   0.0000000   0.0000000   0.0000000  -1.6524109
    6    0.0000000   0.0000000   0.0000000   0.0000000   0.0148669
    7    0.0000000   0.0000000   0.0000000   0.0148669   0.0000000
    8    0.0000000   0.0000000   0.0148669   0.0000000   0.0000000
    9    0.0060080   0.0116083   0.0000000   0.0000000   0.0000000
   10   -0.0000000   0.0000000   0.0000000   0.0000000   0.0000000
   11    0.0000000   0.0000000   0.0000000   0.0000000   0.0000000
   12    0.0000000  -0.0000000   0.0000000   0.0000000   0.0000000
   13    0.0000000   0.0000000   0.0000000   0.0000000   0.0000000
   14    0.0000000   0.0000000   0.0000000   0.0000000   0.0000000
 NEW ORBITALS

                      1          2          3          4          5

                  -32.6731    -1.8919    -0.8080    -0.8080    -0.8080

    1  NE 1  S   -1.000409   0.000068   0.000000   0.000000   0.000000
    2  NE 1  S    0.000061   0.517716   0.000000   0.000000   0.000000
    3  NE 1  S    0.002166   0.565337   0.000000   0.000000   0.000000
    4  NE 1  X    0.000000   0.000000   0.000000   0.000000   0.696502
    5  NE 1  Y    0.000000   0.000000   0.000000   0.696502   0.000000
    6  NE 1  Z    0.000000   0.000000   0.696502   0.000000   0.000000
    7  NE 1  X    0.000000   0.000000   0.000000   0.000000   0.455628
    8  NE 1  Y    0.000000   0.000000   0.000000   0.455628   0.000000
    9  NE 1  Z    0.000000   0.000000   0.455628   0.000000   0.000000
   10  NE 1 XX    0.000000   0.000000   0.000000   0.000000   0.000000
   11  NE 1 YY    0.000000   0.000000   0.000000   0.000000   0.000000
   12  NE 1 ZZ    0.000000   0.000000   0.000000   0.000000   0.000000
   13  NE 1 XY    0.000000   0.000000   0.000000   0.000000   0.000000
   14  NE 1 XZ    0.000000   0.000000   0.000000   0.000000   0.000000
   15  NE 1 YZ    0.000000   0.000000   0.000000   0.000000   0.000000

                      6          7          8          9         10

                    1.7129     1.7129     1.7129     2.1786     5.2213

    1  NE 1  S    0.000000   0.000000   0.000000   0.621576   0.000000
    2  NE 1  S    0.000000   0.000000   0.000000   1.542691   0.000000
    3  NE 1  S    0.000000   0.000000   0.000000  -1.520683   0.000000
    4  NE 1  X    0.906124   0.000000   0.000000   0.000000   0.000000
    5  NE 1  Y    0.000000   0.906124   0.000000   0.000000   0.000000
    6  NE 1  Z    0.000000   0.000000   0.906124   0.000000   0.000000
    7  NE 1  X   -1.048131   0.000000   0.000000   0.000000   0.000000
    8  NE 1  Y    0.000000  -1.048131   0.000000   0.000000   0.000000
    9  NE 1  Z    0.000000   0.000000  -1.048131   0.000000   0.000000
   10  NE 1 XX    0.000000   0.000000   0.000000   0.000000  -0.500000
   11  NE 1 YY    0.000000   0.000000   0.000000   0.000000  -0.500000
   12  NE 1 ZZ    0.000000   0.000000   0.000000   0.000000   1.000000
   13  NE 1 XY    0.000000   0.000000   0.000000   0.000000   0.000000
   14  NE 1 XZ    0.000000   0.000000   0.000000   0.000000   0.000000
   15  NE 1 YZ    0.000000   0.000000   0.000000   0.000000   0.000000

                     11         12         13         14

                    5.2213     5.2213     5.2213     5.2213

    1  NE 1  S    0.000000   0.000000   0.000000   0.000000
    2  NE 1  S    0.000000   0.000000   0.000000   0.000000
    3  NE 1  S    0.000000   0.000000   0.000000   0.000000
    4  NE 1  X    0.000000   0.000000   0.000000   0.000000
    5  NE 1  Y    0.000000   0.000000   0.000000   0.000000
    6  NE 1  Z    0.000000   0.000000   0.000000   0.000000
    7  NE 1  X    0.000000   0.000000   0.000000   0.000000
    8  NE 1  Y    0.000000   0.000000   0.000000   0.000000
    9  NE 1  Z    0.000000   0.000000   0.000000   0.000000
   10  NE 1 XX    0.000000   0.866025   0.000000   0.000000
   11  NE 1 YY    0.000000  -0.866025   0.000000   0.000000
   12  NE 1 ZZ    0.000000   0.000000   0.000000   0.000000
   13  NE 1 XY    1.000000   0.000000   0.000000   0.000000
   14  NE 1 XZ    0.000000   0.000000   0.000000   1.000000
   15  NE 1 YZ    0.000000   0.000000   1.000000   0.000000
 NEW DENSITY MATRIX

                      1          2          3          4          5

    1  NE 1  S    2.001638
    2  NE 1  S   -0.000051   0.536060
    3  NE 1  S   -0.004257   0.585369   0.639222
    4  NE 1  X    0.000000   0.000000   0.000000   0.970229
    5  NE 1  Y    0.000000   0.000000   0.000000   0.000000   0.970229
    6  NE 1  Z    0.000000   0.000000   0.000000   0.000000   0.000000
    7  NE 1  X    0.000000   0.000000   0.000000   0.634691   0.000000
    8  NE 1  Y    0.000000   0.000000   0.000000   0.000000   0.634691
    9  NE 1  Z    0.000000   0.000000   0.000000   0.000000   0.000000
   10  NE 1 XX    0.000000   0.000000   0.000000   0.000000   0.000000
   11  NE 1 YY    0.000000   0.000000   0.000000   0.000000   0.000000
   12  NE 1 ZZ    0.000000   0.000000   0.000000   0.000000   0.000000
   13  NE 1 XY    0.000000   0.000000   0.000000   0.000000   0.000000
   14  NE 1 XZ    0.000000   0.000000   0.000000   0.000000   0.000000
   15  NE 1 YZ    0.000000   0.000000   0.000000   0.000000   0.000000

                      6          7          8          9         10

    6  NE 1  Z    0.970229
    7  NE 1  X    0.000000   0.415193
    8  NE 1  Y    0.000000   0.000000   0.415193
    9  NE 1  Z    0.634691   0.000000   0.000000   0.415193
   10  NE 1 XX    0.000000   0.000000   0.000000   0.000000   0.000000
   11  NE 1 YY    0.000000   0.000000   0.000000   0.000000   0.000000
   12  NE 1 ZZ    0.000000   0.000000   0.000000   0.000000   0.000000
   13  NE 1 XY    0.000000   0.000000   0.000000   0.000000   0.000000
   14  NE 1 XZ    0.000000   0.000000   0.000000   0.000000   0.000000
   15  NE 1 YZ    0.000000   0.000000   0.000000   0.000000   0.000000

                     11         12         13         14         15

   11  NE 1 YY    0.000000
   12  NE 1 ZZ    0.000000   0.000000
   13  NE 1 XY    0.000000   0.000000   0.000000
   14  NE 1 XZ    0.000000   0.000000   0.000000   0.000000
   15  NE 1 YZ    0.000000   0.000000   0.000000   0.000000   0.000000
 *** END OF DEBUG OUTPUT FOR ITERATION                    3
   3  2  0     -128.4886733121    -0.0004241271   0.005103983   0.007433437
[...]
  0.256728143221E-01  0.138081562724E-01  0.256728143221E-01  0.519490517362E-01  0.258900329362E+00  0.550384861997E-02
  0.174145502422E+00  0.195964946867E-01  0.989976140415E-01  0.307095286951E-01 -0.138081562724E-01 -0.256728143221E-01
 -0.256728143221E-01  0.000000000000E+00  0.295017528651E-01 -0.295017528651E-01  0.519490517362E-01  0.258900329362E+00
  0.000000000000E+00  0.550384861997E-02  0.174145502422E+00  0.000000000000E+00  0.195964946867E-01  0.989976140415E-01
  0.307095286951E-01  0.690407813621E-02  0.383856745984E-01 -0.127128602763E-01 -0.119582141113E-01 -0.748243295701E-02
 -0.369841858221E-01  0.519490517362E-01  0.258900329362E+00  0.000000000000E+00  0.119582141113E-01  0.748243295701E-02
  0.369841858221E-01  0.369841858221E-01  0.748243295701E-02  0.119582141113E-01  0.748243295701E-02  0.234983901140E+00
  0.000000000000E+00 -0.212562133123E-01 -0.339779129299E-01 -0.156831346727E+00 -0.305794513232E-01 -0.193335149647E-01
 -0.305794513232E-01 -0.114018522020E+00 -0.242965878365E-01  0.378600389970E-01  0.221116169682E-01  0.420829245834E-01
  0.109798745056E+00 -0.221116169682E-01 -0.420829245834E-01 -0.109798745056E+00  0.161835230229E-01  0.251133465962E+00
  0.000000000000E+00  0.595288302277E-01  0.810332468589E+00 -0.176550544531E-01 -0.111622100693E-01  0.000000000000E+00
  0.660817376428E-01  0.967727405209E+00 -0.305794513232E-01 -0.193335149647E-01  0.000000000000E+00  0.761584830234E-01
  0.485931756730E-01  0.000000000000E+00  0.154021978992E+00  0.102383797132E+01  0.212562133123E-01  0.759604416650E+00
  0.199343773351E+00  0.827560242510E+00  0.154021978992E+00  0.102383797132E+01  0.212562133123E-01  0.759604416650E+00
  0.154021978992E+00  0.102383797132E+01  0.221116169682E-01  0.939672122153E+00 -0.161835230229E-01 -0.251133465962E+00
  0.000000000000E+00  0.516756245365E-01  0.937661491020E+00  0.283500512007E+00  0.185153199661E+00 -0.173034648751E+01
  0.104101274009E+01 -0.730743347137E+01 -0.832529117747E-02 -0.173195075132E+00 -0.114312598232E+00 -0.226280829651E-01
 -0.354603093176E-01 -0.667712579959E-01 -0.266872472103E+00  0.000000000000E+00  0.000000000000E+00  0.000000000000E+00
  0.000000000000E+00  0.000000000000E+00  0.000000000000E+00 -0.748243295701E-02 -0.234983901140E+00 -0.550384861997E-02
 -0.174145502422E+00 -0.550384861997E-02 -0.174145502422E+00 -0.748243295701E-02 -0.234983901140E+00 -0.195964946867E-01
 -0.989976140415E-01 -0.307095286951E-01 -0.690407813621E-02  0.127128602763E-01 -0.383856745984E-01  0.119582141113E-01
  0.369841858221E-01  0.748243295701E-02 -0.748243295701E-02 -0.369841858221E-01 -0.119582141113E-01 -0.519490517362E-01
 -0.258900329362E+00  0.000000000000E+00 -0.195964946867E-01 -0.989976140415E-01 -0.307095286951E-01 -0.690407813621E-02
  0.127128602763E-01 -0.383856745984E-01 -0.119582141113E-01 -0.369841858221E-01 -0.748243295701E-02 -0.748243295701E-02
 -0.369841858221E-01 -0.119582141113E-01 -0.519490517362E-01 -0.258900329362E+00  0.000000000000E+00  0.595288302277E-01
  0.810332468589E+00  0.353101089062E-01  0.223244201385E-01  0.000000000000E+00  0.197992099667E+00  0.105189325438E+01
  0.000000000000E+00  0.000000000000E+00  0.000000000000E+00  0.000000000000E+00  0.000000000000E+00  0.000000000000E+00
  0.221116169682E-01  0.939672122153E+00  0.212562133123E-01  0.759604416650E+00  0.212562133123E-01  0.759604416650E+00
  0.221116169682E-01  0.939672122153E+00  0.199343773351E+00  0.827560242510E+00  0.154021978992E+00  0.102383797132E+01
  0.154021978992E+00  0.102383797132E+01 -0.283500512007E+00 -0.185153199661E+00  0.173034648751E+01  0.104101274009E+01
 -0.730743347137E+01  0.294619827919E-01  0.294619827919E-01  0.940807377896E-02  0.201148971859E-01 -0.554920056248E-02
  0.129066968912E-01  0.520567642792E-02  0.200228501714E-01  0.223550547735E-01  0.223550547735E-01  0.200228501714E-01
  0.520567642792E-02  0.520567642792E-02  0.223550547735E-01  0.200228501714E-01  0.155839585663E-01  0.155839585663E-01
  0.155839585663E-01  0.138103615776E-01 -0.276207231553E-01  0.138103615776E-01 -0.239202479234E-01  0.000000000000E+00
  0.239202479234E-01  0.225044266415E-01  0.818865031486E+00  0.899740267331E-02  0.899740267331E-02  0.000000000000E+00
  0.428571108627E-01  0.105548093962E+01  0.155839585663E-01  0.155839585663E-01  0.000000000000E+00  0.138103615776E-01
 -0.276207231553E-01  0.000000000000E+00  0.588039428116E-01  0.102358727572E+01  0.304342030273E-01  0.792632430637E+00
  0.520567642792E-02  0.747922321090E+00  0.588039428116E-01  0.102358727572E+01  0.304342030273E-01  0.792632430637E+00
  0.588039428116E-01  0.102358727572E+01  0.114119516134E+01 -0.240032498394E+01  0.294619827919E-01  0.294619827919E-01
  0.940807377896E-02  0.201148971859E-01 -0.554920056248E-02  0.129066968912E-01 -0.520567642792E-02 -0.200228501714E-01
 -0.223550547735E-01  0.223550547735E-01  0.200228501714E-01  0.520567642792E-02  0.225044266415E-01  0.818865031486E+00
  0.899740267331E-02  0.899740267331E-02  0.000000000000E+00  0.428571108627E-01  0.105548093962E+01 -0.155839585663E-01
 -0.155839585663E-01  0.000000000000E+00 -0.138103615776E-01  0.276207231553E-01  0.000000000000E+00  0.588039428116E-01
  0.102358727572E+01  0.520567642792E-02  0.747922321090E+00  0.304342030273E-01  0.792632430637E+00  0.588039428116E-01
  0.102358727572E+01  0.304342030273E-01  0.792632430637E+00  0.114119516134E+01 -0.240032498394E+01  0.117383384620E+00
  0.686776351917E+00  0.340197673915E-01  0.108635078577E-01  0.000000000000E+00  0.388437118937E-01  0.807535800486E+00
  0.000000000000E+00  0.000000000000E+00  0.000000000000E+00  0.000000000000E+00  0.000000000000E+00  0.000000000000E+00
  0.520567642792E-02  0.747922321090E+00  0.329686745484E-01  0.650936466248E+00  0.329686745484E-01  0.650936466248E+00
  0.520567642792E-02  0.747922321090E+00  0.716873815345E+00 -0.428738861296E+01  0.294619827919E-01  0.294619827919E-01
  0.940807377896E-02 -0.145656966234E-01 -0.145656966234E-01 -0.258133937824E-01 -0.148171737435E-01  0.148171737435E-01
  0.000000000000E+00  0.225044266415E-01  0.818865031486E+00 -0.179948053466E-01 -0.179948053466E-01  0.000000000000E+00
  0.667773587861E-01  0.100764044377E+01  0.000000000000E+00  0.000000000000E+00  0.000000000000E+00  0.000000000000E+00
  0.000000000000E+00  0.000000000000E+00  0.348836948883E-01  0.107142777157E+01  0.304342030273E-01  0.792632430637E+00
  0.304342030273E-01  0.792632430637E+00  0.114119516134E+01 -0.240032498394E+01  0.117383384620E+00  0.686776351917E+00
 -0.170098836957E-01 -0.543175392884E-02  0.000000000000E+00  0.136151852944E-01  0.762825690939E+00 -0.294619827919E-01
 -0.940807377896E-02  0.000000000000E+00  0.145656966234E-01  0.258133937824E-01  0.000000000000E+00  0.304342030273E-01
  0.792632430637E+00  0.329686745484E-01  0.650936466248E+00  0.716873815345E+00 -0.428738861296E+01  0.117383384620E+00
  0.686776351917E+00 -0.170098836957E-01 -0.543175392884E-02  0.000000000000E+00  0.136151852944E-01  0.762825690939E+00
  0.294619827919E-01  0.940807377896E-02  0.000000000000E+00 -0.145656966234E-01 -0.258133937824E-01  0.000000000000E+00
  0.304342030273E-01  0.792632430637E+00  0.716873815345E+00 -0.428738861296E+01  0.000000000000E+00  0.000000000000E+00
  0.000000000000E+00  0.000000000000E+00  0.000000000000E+00  0.225044266415E-01  0.818865031486E+00 -0.179948053466E-01
 -0.179948053466E-01  0.000000000000E+00  0.667773587861E-01  0.100764044377E+01  0.000000000000E+00  0.000000000000E+00
  0.000000000000E+00  0.000000000000E+00  0.000000000000E+00  0.000000000000E+00  0.114119516134E+01 -0.240032498394E+01
  0.225044266415E-01  0.818865031486E+00  0.179948053466E-01  0.000000000000E+00  0.000000000000E+00  0.114119516134E+01
 -0.240032498394E+01  0.711505115608E+00 -0.403583664164E+01
 IN CORE ALGORITHM SORTED             22 NON-ZERO 1E- INTEGRALS
 IN CORE ALGORITHM SORTED            584 NON-ZERO 2E- INTEGRALS
 ...... END OF INTEGRAL SORTING ...... 
 STEP CPU TIME =     0.02 TOTAL CPU TIME =        0.6 (    0.0 MIN)
 TOTAL WALL CLOCK TIME=        0.7 SECONDS, CPU UTILIZATION IS  77.78%

 -------------------------     ---------------------------------------
 ENERGY MATRIX CALCULATION     WRITTEN BY B.R.BROOKS,W.D.LAIDIG,P.SAXE
 -------------------------     ---------------------------------------

 COMPUTING THE HAMILTONIAN FOR THE       115 CSF-S...

        2795 IS THE TOTAL NUMBER OF GENERATED LOOPS
        2795 WERE CREATED BY THE LOOP-DRIVEN ALGORITHM
           0 WERE CREATED IMPLICITLY

        2526 IS THE TOTAL NUMBER OF PROCESSED LOOPS
         772     DIAGONAL LOOPS ARE STORED ON WORK15 IN     1 BUFFERS OF  10000 ELEMENTS.
        1754 OFF DIAGONAL LOOPS ARE STORED ON WORK16 IN     1 BUFFERS OF  10000 ELEMENTS.
 ...... END OF ENERGY MATRIX CALCULATION ...... 
 STEP CPU TIME =     0.00 TOTAL CPU TIME =        0.6 (    0.0 MIN)
 TOTAL WALL CLOCK TIME=        0.8 SECONDS, CPU UTILIZATION IS  74.67%

          -----------------------------------------
          DAVIDSON METHOD CI-MATRIX DIAGONALIZATION
                   WRITTEN BY STEVE ELBERT
          -----------------------------------------
 NUMBER OF STATES REQUESTED =     1
 MAX. NUMB. OF EXPAN. VEC   =    30
 MAX. NUMB. IMPROVED STATES =     1
 MAX. NUMB. OF ITERATIONS   =    50
 CONVERGENCE CRITERION      =    1.0E-10

 NAME OF THE ENERGY MATRIX ... Title                                                                           
 NAME OF THE -DRT- TABLE   ... CIDRT   Tue Jul 29 21:20:16 2014                                                
 NUMBER OF CONFIGURATIONS  ...        115
 INTEGRAL CUTOFF=        0.0000000100
 FIND ROOTS OF ENERGY MATRIX 

 CHOOSING TO SOLVE SECULAR EQUATION IN MEMORY
 NUMBER OF WORDS AVAILABLE =  100000000
 NUMBER OF WORDS USED      =      46285
 ENERGY MATRIX BUFFER SIZE =      10000

 ITER. NO.JUST IMPROVED    ENERGY AND STATE
   0  50(MAX.TOL.STATE)   -128.588719519  1
   1   6  0.32702078  4   -128.672859079  1
   2   5  0.03932524  4   -128.673580573  1
   3   4  0.00253916  1   -128.673617229  1
   4   3  0.00015295  1   -128.673617367  1
   5   2  0.00000954  1   -128.673617367  1
   6   1  0.00000061  1   -128.673617367  1
   7   1  0.00000003  1   -128.673617367  1
   8   1  0.00000000  1   -128.673617367  1
   9   1  0.00000000  1   -128.673617367  1
 SOLUTION FOUND WITH INDIRECT METHOD

 STATE #    1  ENERGY =    -128.673617367

      CSF      COEF    OCCUPANCY (IGNORING CORE)
      ---      ----    --------- --------- -----
        1         9.8716678535E-01  2222000000000

 RENORMALIZED DAVIDSON CORRECTION FOR     1-REFERENCE CI.
 C0SQ= 0.974498 EREF=     -128.488776 E-E(REF)=   0.184842 E(Q)=   0.004837
 GIVES A E(SD+Q) ESTIMATE OF     -128.6784545103
 ...... END OF CI-MATRIX DIAGONALIZATION ......
 STEP CPU TIME =     0.01 TOTAL CPU TIME =        0.6 (    0.0 MIN)
 TOTAL WALL CLOCK TIME=        0.8 SECONDS, CPU UTILIZATION IS  72.15%

          --------------------------------------
          CI DENSITY MATRIX AND NATURAL ORBITALS
          --------------------------------------
 PROPERTIES WILL BE COMPUTED FOR STATE -IROOT-   1 WITH E=     -128.6736173672
 NFLGDM=   1
 NWORD=         0  IBLOCK=   0
 NUMBER OF STATES         =      1
 NUMBER OF CONFIGURATIONS =    115

          CI EIGENSTATE    1 TOTAL ENERGY =     -128.6736173672
          DENSITY MATRIX OF STATE   1 SAVED FOR PROPERTY ANALYSIS

          NATURAL ORBITALS IN ATOMIC ORBITAL BASIS
          ----------------------------------------

                      1          2          3          4          5
                    2.0000     0.0006     0.0000     0.0000     0.0000
                     AG         B3U        AG         B2G        B2U 
    1  NE 1  S    1.000409   0.000000  -0.582488   0.000000   0.000000
    2  NE 1  S    0.000000   0.000000  -1.264904   0.000000   0.000000
    3  NE 1  S   -0.002100   0.000000   1.622369   0.000000   0.000000
    4  NE 1  X    0.000000   0.696473   0.000000   0.000000   0.000000
    5  NE 1  Y    0.000000   0.000000   0.000000   0.000000   0.580424
    6  NE 1  Z    0.000000   0.000000   0.000000   0.000000   0.000000
    7  NE 1  X    0.000000   0.455661   0.000000   0.000000   0.000000
    8  NE 1  Y    0.000000   0.000000   0.000000   0.000000   0.580424
    9  NE 1  Z    0.000000   0.000000   0.000000   0.000000   0.000000
   10  NE 1 XX    0.000000   0.000000   0.000000   0.000000   0.000000
   11  NE 1 YY    0.000000   0.000000   0.000000   0.000000   0.000000
   12  NE 1 ZZ    0.000000   0.000000   0.000000   0.000000   0.000000
   13  NE 1 XY    0.000000   0.000000   0.000000   0.000000   0.000000
   14  NE 1 XZ    0.000000   0.000000   0.000000   1.000000   0.000000
   15  NE 1 YZ    0.000000   0.000000   0.000000   0.000000   0.000000

                      6          7          8          9         10
                    0.0000     0.0000     0.0000     0.0000     0.0000
                     B2U        B1U        B1U        B1G        B3G 
    1  NE 1  S   -0.000000   0.000000  -0.000000   0.000000   0.000000
    2  NE 1  S   -0.000000   0.000000  -0.000000   0.000000   0.000000
    3  NE 1  S   -0.000000   0.000000  -0.000000   0.000000   0.000000
    4  NE 1  X   -0.000000   0.000000  -0.000000   0.000000   0.000000
    5  NE 1  Y   -0.984522   0.000000  -0.000000   0.000000   0.000000
    6  NE 1  Z   -0.000000   0.580424  -0.984522   0.000000   0.000000
    7  NE 1  X   -0.000000   0.000000  -0.000000   0.000000   0.000000
    8  NE 1  Y    0.984522   0.000000  -0.000000   0.000000   0.000000
    9  NE 1  Z   -0.000000   0.580424   0.984522   0.000000   0.000000
   10  NE 1 XX   -0.000000   0.000000  -0.000000   0.000000   0.000000
   11  NE 1 YY   -0.000000   0.000000  -0.000000   0.000000   0.000000
   12  NE 1 ZZ   -0.000000   0.000000  -0.000000   0.000000   0.000000
   13  NE 1 XY   -0.000000   0.000000  -0.000000   1.000000   0.000000
   14  NE 1 XZ   -0.000000   0.000000  -0.000000   0.000000   0.000000
   15  NE 1 YZ   -0.000000   0.000000  -0.000000   0.000000   1.000000

                     11         12         13         14
                    0.0000     0.0000    -0.0000    -0.0000
                     AG         AG         B3U        AG  
    1  NE 1  S   -0.000000   0.000000  -0.000000   0.216942
    2  NE 1  S   -0.000000   0.000000  -0.000000   1.023691
    3  NE 1  S   -0.000000   0.000000  -0.000000  -0.001092
    4  NE 1  X   -0.000000   0.000000  -0.906146   0.000000
    5  NE 1  Y   -0.000000   0.000000  -0.000000   0.000000
    6  NE 1  Z   -0.000000   0.000000  -0.000000   0.000000
    7  NE 1  X   -0.000000   0.000000   1.048117   0.000000
    8  NE 1  Y   -0.000000   0.000000  -0.000000   0.000000
    9  NE 1  Z   -0.000000   0.000000  -0.000000   0.000000
   10  NE 1 XX    0.866025  -0.500000  -0.000000   0.000000
   11  NE 1 YY   -0.866025  -0.500000  -0.000000   0.000000
   12  NE 1 ZZ   -0.000000   1.000000  -0.000000   0.000000
   13  NE 1 XY   -0.000000   0.000000  -0.000000   0.000000
   14  NE 1 XZ   -0.000000   0.000000  -0.000000   0.000000
   15  NE 1 YZ   -0.000000   0.000000  -0.000000   0.000000
 ...... END OF DENSITY MATRIX CALCULATION ...... 
 STEP CPU TIME =     0.00 TOTAL CPU TIME =        0.6 (    0.0 MIN)
 TOTAL WALL CLOCK TIME=        0.8 SECONDS, CPU UTILIZATION IS  71.25%

     --------------------------------------------------------
     GUGA  CI PROPERTIES...FOR THE WAVEFUNCTION OF STATE    1
               USING THE EXPECTATION VALUE DENSITY
     --------------------------------------------------------

          -----------------
          ENERGY COMPONENTS
          -----------------

         WAVEFUNCTION NORMALIZATION =       0.2000599717

                ONE ELECTRON ENERGY =     -99.8272609905
                TWO ELECTRON ENERGY =     -28.8463563767
           NUCLEAR REPULSION ENERGY =       0.0000000000
                                      ------------------
                       TOTAL ENERGY =    -128.6736173672

 ELECTRON-ELECTRON POTENTIAL ENERGY =     -28.8463563767
  NUCLEUS-ELECTRON POTENTIAL ENERGY =    -192.3741381011
   NUCLEUS-NUCLEUS POTENTIAL ENERGY =       0.0000000000
                                      ------------------
             TOTAL POTENTIAL ENERGY =    -221.2204944778
               TOTAL KINETIC ENERGY =      92.5468771106
                 VIRIAL RATIO (V/T) =       2.3903615269

          ---------------------------------------
          MULLIKEN AND LOWDIN POPULATION ANALYSES
          ---------------------------------------

               ----- POPULATIONS IN EACH AO -----
                             MULLIKEN      LOWDIN
              1  NE 1  S      2.00081     1.90355
              2  NE 1  S     -0.00000     0.05655
              3  NE 1  S     -0.00081     0.02363
              4  NE 1  X      0.00038     0.00037
              5  NE 1  Y      0.00000     0.00000
              6  NE 1  Z      0.00000     0.00000
              7  NE 1  X      0.00022     0.00023
              8  NE 1  Y      0.00000     0.00000
              9  NE 1  Z      0.00000     0.00000
             10  NE 1 XX      0.00000     0.00542
             11  NE 1 YY      0.00000     0.00542
             12  NE 1 ZZ      0.00000     0.00542
             13  NE 1 XY      0.00000     0.00000
             14  NE 1 XZ      0.00000     0.00000
             15  NE 1 YZ      0.00000     0.00000

          ----- MULLIKEN ATOMIC OVERLAP POPULATIONS -----
          (OFF-DIAGONAL ELEMENTS NEED TO BE MULTIPLIED BY 2)

             1

    1    2.0005997

          TOTAL MULLIKEN AND LOWDIN ATOMIC POPULATIONS
       ATOM         MULL.POP.    CHARGE          LOW.POP.     CHARGE
    1 NE            2.000600    7.999400         2.000600    7.999400

          MULLIKEN SPHERICAL HARMONIC POPULATIONS
       ATOM           S       P       D      F      G      H      I    TOTAL
    1 NE            2.00    0.00    0.00   0.00   0.00   0.00   0.00    2.00

          ---------------------
          ELECTROSTATIC MOMENTS
          ---------------------

 POINT   1           X           Y           Z (BOHR)    CHARGE
                 0.000000    0.000000    0.000000        8.00 (A.U.)
         DX          DY          DZ         /D/  (DEBYE)
     0.000000    0.000000    0.000000    0.000000
 ...... END OF PROPERTY EVALUATION ......
 STEP CPU TIME =     0.01 TOTAL CPU TIME =        0.6 (    0.0 MIN)
 TOTAL WALL CLOCK TIME=        0.8 SECONDS, CPU UTILIZATION IS  71.60%
               580000  WORDS OF DYNAMIC MEMORY USED
 EXECUTION OF GAMESS TERMINATED NORMALLY Tue Jul 29 21:20:17 2014
 DDI: 263624 bytes (0.3 MB / 0 MWords) used by master data server.

 ----------------------------------------
 CPU timing information for all processes
 ========================================
 0: 0.272 + 0.416 = 0.688
 ----------------------------------------
 ddikick.x: exited gracefully.
unset echo
----- accounting info -----
Files used on the master node doreen were:
-rw-r--r-- 1 lmentel lmentel    7917 lip 29 21:20 /home/lmentel/scratch/ne_dz_guga.dat
-rw-r--r-- 1 lmentel lmentel     491 lip 29 21:20 /home/lmentel/scratch/ne_dz_guga.F05
-rw-r--r-- 1 lmentel lmentel  180016 lip 29 21:20 /home/lmentel/scratch/ne_dz_guga.F08
-rw-r--r-- 1 lmentel lmentel  180752 lip 29 21:20 /home/lmentel/scratch/ne_dz_guga.F09
-rw-r--r-- 1 lmentel lmentel 1766880 lip 29 21:20 /home/lmentel/scratch/ne_dz_guga.F10
-rw-r--r-- 1 lmentel lmentel  291680 lip 29 21:20 /home/lmentel/scratch/ne_dz_guga.F11
-rw-r--r-- 1 lmentel lmentel    1112 lip 29 21:20 /home/lmentel/scratch/ne_dz_guga.F12
-rw-r--r-- 1 lmentel lmentel  400008 lip 29 21:20 /home/lmentel/scratch/ne_dz_guga.F14
-rw-r--r-- 1 lmentel lmentel  161144 lip 29 21:20 /home/lmentel/scratch/ne_dz_guga.F15
-rw-r--r-- 1 lmentel lmentel  200216 lip 29 21:20 /home/lmentel/scratch/ne_dz_guga.F16
ls: No match.
ls: No match.
ls: No match.
wto, 29 lip 2014, 21:20:20 CEST
0.0u 0.0s 0:04.41 1.1% 0+0k 1176+6272io 13pf+0w
