----- GAMESS execution script 'rungms' -----
This job is running on host doreen
under operating system Linux at czw, 31 lip 2014, 01:23:18 CEST
Available scratch disk space (Kbyte units) at beginning of the job is
System plików  1K-blocks     użyte dostępne %uż. zamont. na
/dev/sda5      264208320 219365592 31398688  88% /home
GAMESS temporary binary files will be written to /home/lmentel/scratch
GAMESS supplementary output files will be written to /home/lmentel/scratch
Copying input file ne_dz_guga.inp to your run's scratch directory...
cp ne_dz_guga.inp /home/lmentel/scratch/ne_dz_guga.F05
unset echo
/home/lmentel/Programs/gamess-may2012/ddikick.x /home/lmentel/Programs/gamess-may2012/gamess.01.x ne_dz_guga -ddi 1 1 doreen -scr /home/lmentel/scratch

 Distributed Data Interface kickoff program.
 Initiating 1 compute processes on 1 nodes to run the following command:
 /home/lmentel/Programs/gamess-may2012/gamess.01.x ne_dz_guga 

          ******************************************************
          *         GAMESS VERSION =  1 MAY 2012 (R1)          *
          *             FROM IOWA STATE UNIVERSITY             *
          * M.W.SCHMIDT, K.K.BALDRIDGE, J.A.BOATZ, S.T.ELBERT, *
          *   M.S.GORDON, J.H.JENSEN, S.KOSEKI, N.MATSUNAGA,   *
          *          K.A.NGUYEN, S.J.SU, T.L.WINDUS,           *
          *       TOGETHER WITH M.DUPUIS, J.A.MONTGOMERY       *
          *         J.COMPUT.CHEM.  14, 1347-1363(1993)        *
          **************** 64 BIT LINUX VERSION ****************

  SINCE 1993, STUDENTS AND POSTDOCS WORKING AT IOWA STATE UNIVERSITY
  AND ALSO IN THEIR VARIOUS JOBS AFTER LEAVING ISU HAVE MADE IMPORTANT
  CONTRIBUTIONS TO THE CODE:
     IVANA ADAMOVIC, CHRISTINE AIKENS, YURI ALEXEEV, POOJA ARORA,
     ANDREY ASADCHEV, ROB BELL, PRADIPTA BANDYOPADHYAY, JONATHAN BENTZ,
     BRETT BODE, GALINA CHABAN, WEI CHEN, CHEOL HO CHOI, PAUL DAY,
     ALBERT DEFUSCO, TIM DUDLEY, DMITRI FEDOROV, GRAHAM FLETCHER,
     MARK FREITAG, KURT GLAESEMANN, DAN KEMP, GRANT MERRILL,
     NORIYUKI MINEZAWA, JONATHAN MULLIN, TAKESHI NAGATA,
     SEAN NEDD, HEATHER NETZLOFF, BOSILJKA NJEGIC, RYAN OLSON, MIKE PAK,
     JIM SHOEMAKER, LYUDMILA SLIPCHENKO, SAROM SOK, JIE SONG,
     TETSUYA TAKETSUGU, SIMON WEBB, SOOHAENG YOO, FEDERICO ZAHARIEV

  ADDITIONAL CODE HAS BEEN PROVIDED BY COLLABORATORS IN OTHER GROUPS:
     IOWA STATE UNIVERSITY:
          JOE IVANIC, LAIMUTIS BYTAUTAS, KLAUS RUEDENBERG
     UNIVERSITY OF TOKYO: KIMIHIKO HIRAO, TAKAHITO NAKAJIMA,
          TAKAO TSUNEDA, MUNEAKI KAMIYA, SUSUMU YANAGISAWA,
          KIYOSHI YAGI, MAHITO CHIBA, SEIKEN TOKURA, NAOAKI KAWAKAMI
     UNIVERSITY OF AARHUS: FRANK JENSEN
     UNIVERSITY OF IOWA: VISVALDAS KAIRYS, HUI LI
     NATIONAL INST. OF STANDARDS AND TECHNOLOGY: WALT STEVENS, DAVID GARMER
     UNIVERSITY OF PISA: BENEDETTA MENNUCCI, JACOPO TOMASI
     UNIVERSITY OF MEMPHIS: HENRY KURTZ, PRAKASHAN KORAMBATH
     UNIVERSITY OF ALBERTA: TOBY ZENG, MARIUSZ KLOBUKOWSKI
     UNIVERSITY OF NEW ENGLAND: MARK SPACKMAN
     MIE UNIVERSITY: HIROAKI UMEDA
     MICHIGAN STATE UNIVERSITY:
          KAROL KOWALSKI, MARTA WLOCH, JEFFREY GOUR, JESSE LUTZ, PIOTR PIECUCH
     UNIVERSITY OF SILESIA: MONIKA MUSIAL, STANISLAW KUCHARSKI
     FACULTES UNIVERSITAIRES NOTRE-DAME DE LA PAIX:
          OLIVIER QUINET, BENOIT CHAMPAGNE
     UNIVERSITY OF CALIFORNIA - SANTA BARBARA: BERNARD KIRTMAN
     INSTITUTE FOR MOLECULAR SCIENCE:
          KAZUYA ISHIMURA, MICHIO KATOUDA, AND SHIGERU NAGASE
     UNIVERSITY OF NOTRE DAME: DAN CHIPMAN
     KYUSHU UNIVERSITY:
          HARUYUKI NAKANO,
          FENG LONG GU, JACEK KORCHOWIEC, MARCIN MAKOWSKI, AND YURIKO AOKI,
          HIROTOSHI MORI AND EISAKU MIYOSHI
     PENNSYLVANIA STATE UNIVERSITY:
          TZVETELIN IORDANOV, CHET SWALINA, JONATHAN SKONE,
          SHARON HAMMES-SCHIFFER
     WASEDA UNIVERSITY:
          MASATO KOBAYASHI, TOMOKO AKAMA, TSUGUKI TOUMA,
          TAKESHI YOSHIKAWA, YASUHIRO IKABATA, HIROMI NAKAI
     UNIVERSITY OF NEBRASKA:
          PEIFENG SU, DEJUN SI, NANDUN THELLAMUREGE, YALI WANG, HUI LI
     UNIVERSITY OF ZURICH:
          ROBERTO PEVERATI, KIM BALDRIDGE
     N. COPERNICUS UNIVERSITY AND JACKSON STATE UNIVERSITY:
          MARIA BARYSZ

 EXECUTION OF GAMESS BEGUN Thu Jul 31 01:23:18 2014

            ECHO OF THE FIRST FEW INPUT CARDS -
 INPUT CARD> $CONTRL                                                                        
 INPUT CARD>    SCFTYP=RHF                                                                  
 INPUT CARD>    RUNTYP=ENERGY                                                               
 INPUT CARD>    CITYP=GUGA                                                                  
 INPUT CARD>    MAXIT=30                                                                    
 INPUT CARD>    MULT=1                                                                      
 INPUT CARD>    ISPHER=1                                                                    
 INPUT CARD>    ICHARG=0                                                                    
 INPUT CARD>!    exetyp=debug                                                               
 INPUT CARD> $END                                                                           
 INPUT CARD> $SYSTEM TIMLIM=14400 MWORDS=100 MEMDDI=0 $END                                  
 INPUT CARD> $SCF                                                                           
 INPUT CARD>    DIRSCF=.F.                                                                  
 INPUT CARD> $END                                                                           
 INPUT CARD> $CIINP                                                                         
 INPUT CARD>    nrnfg(6)=1                                                                  
 INPUT CARD> $END                                                                           
 INPUT CARD> $CIDRT                                                                         
 INPUT CARD>    iexcit=3                                                                    
 INPUT CARD>    nfzc=0                                                                      
 INPUT CARD>    ndoc=5                                                                      
 INPUT CARD>    nval=9                                                                      
 INPUT CARD>    group=d2h                                                                   
 INPUT CARD>!    STSYM=AG                                                                   
 INPUT CARD> $END                                                                           
 INPUT CARD>! $GUGDIA                                                                       
 INPUT CARD>!    CVGTOL=1.0E-10                                                             
 INPUT CARD>! $END                                                                          
 INPUT CARD> $BASIS GBASIS=CCD $END                                                         
 INPUT CARD> $DATA                                                                          
 INPUT CARD>Title                                                                           
 INPUT CARD>dNh 2                                                                           
 INPUT CARD>                                                                                
 INPUT CARD>NE 10.0       0.00000000       0.00000000      0.0000000                        
 INPUT CARD> $END                                                                           
  100000000 WORDS OF MEMORY AVAILABLE

     BASIS OPTIONS
     -------------
     GBASIS=CCD          IGAUSS=       0      POLAR=NONE    
     NDFUNC=       0     NFFUNC=       0     DIFFSP=       F
     NPFUNC=       0      DIFFS=       F     BASNAM=        


     RUN TITLE
     ---------
 Title                                                                           

 THE POINT GROUP OF THE MOLECULE IS DNH     
 THE ORDER OF THE PRINCIPAL AXIS IS     2

 ATOM      ATOMIC                      COORDINATES (BOHR)
           CHARGE         X                   Y                   Z
 NE         10.0     0.0000000000        0.0000000000        0.0000000000

          INTERNUCLEAR DISTANCES (ANGS.)
          ------------------------------

                1 NE    

   1 NE      0.0000000  

  * ... LESS THAN  3.000


     ATOMIC BASIS SET
     ----------------
 THE CONTRACTED PRIMITIVE FUNCTIONS HAVE BEEN UNNORMALIZED
 THE CONTRACTED BASIS FUNCTIONS ARE NOW NORMALIZED TO UNITY

  SHELL TYPE  PRIMITIVE        EXPONENT          CONTRACTION COEFFICIENT(S)

 NE        

      1   S       1         17880.0000000    0.000737698173
      1   S       2          2683.0000000    0.005674678224
      1   S       3           611.5000000    0.028871187451
      1   S       4           173.5000000    0.108495609386
      1   S       5            56.6400000    0.290788025057
      1   S       6            20.4200000    0.448140644761
      1   S       7             7.8100000    0.257920472705
      1   S       8             1.6530000    0.015056839545

      2   S       9         17880.0000000   -0.000332149099
      2   S      10          2683.0000000   -0.002620501907
      2   S      11           611.5000000   -0.013009816761
      2   S      12           173.5000000   -0.053420003126
      2   S      13            56.6400000   -0.147165224243
      2   S      14            20.4200000   -0.338380757248
      2   S      15             7.8100000   -0.206701019217
      2   S      16             1.6530000    1.095029923456

      3   S      17             0.4869000    1.000000000000

      4   P      18            28.3900000    0.066171986640
      4   P      19             6.2700000    0.344853297528
      4   P      20             1.6950000    0.730457638189

      5   P      21             0.4317000    1.000000000000

      6   D      22             2.2020000    1.000000000000

 TOTAL NUMBER OF BASIS SET SHELLS             =    6
 NUMBER OF CARTESIAN GAUSSIAN BASIS FUNCTIONS =   15
 NOTE: THIS RUN WILL RESTRICT THE MO VARIATION SPACE TO SPHERICAL HARMONICS.
 THE NUMBER OF ORBITALS KEPT IN THE VARIATIONAL SPACE WILL BE PRINTED LATER.
 NUMBER OF ELECTRONS                          =   10
 CHARGE OF MOLECULE                           =    0
 SPIN MULTIPLICITY                            =    1
 NUMBER OF OCCUPIED ORBITALS (ALPHA)          =    5
 NUMBER OF OCCUPIED ORBITALS (BETA )          =    5
 TOTAL NUMBER OF ATOMS                        =    1
 THE NUCLEAR REPULSION ENERGY IS        0.0000000000

 THIS MOLECULE IS RECOGNIZED AS BEING LINEAR,
 ORBITAL LZ DEGENERACY TOLERANCE ETOLLZ= 1.00E-06

     $CONTRL OPTIONS
     ---------------
 SCFTYP=RHF          RUNTYP=ENERGY       EXETYP=RUN     
 MPLEVL=       0     CITYP =GUGA         CCTYP =NONE         VBTYP =NONE    
 DFTTYP=NONE         TDDFT =NONE    
 MULT  =       1     ICHARG=       0     NZVAR =       0     COORD =UNIQUE  
 PP    =NONE         RELWFN=NONE         LOCAL =NONE         NUMGRD=       F
 ISPHER=       1     NOSYM =       0     MAXIT =      30     UNITS =ANGS    
 PLTORB=       F     MOLPLT=       F     AIMPAC=       F     FRIEND=        
 NPRINT=       7     IREST =       0     GEOM  =INPUT   
 NORMF =       0     NORMP =       0     ITOL  =      20     ICUT  =       9
 INTTYP=BEST         GRDTYP=BEST         QMTTOL= 1.0E-06

     $SYSTEM OPTIONS
     ---------------
  REPLICATED MEMORY=   100000000 WORDS (ON EVERY NODE).
 DISTRIBUTED MEMDDI=           0 MILLION WORDS IN AGGREGATE,
 MEMDDI DISTRIBUTED OVER   1 PROCESSORS IS           0 WORDS/PROCESSOR.
 TOTAL MEMORY REQUESTED ON EACH PROCESSOR=   100000000 WORDS.
 TIMLIM=       14400.00 MINUTES, OR      10.0 DAYS.
 PARALL= F  BALTYP=  DLB     KDIAG=    0  COREFL= F
 MXSEQ2=     300 MXSEQ3=     150

          ----------------
          PROPERTIES INPUT
          ----------------

     MOMENTS            FIELD           POTENTIAL          DENSITY
 IEMOM =       1   IEFLD =       0   IEPOT =       0   IEDEN =       0
 WHERE =COMASS     WHERE =NUCLEI     WHERE =NUCLEI     WHERE =NUCLEI  
 OUTPUT=BOTH       OUTPUT=BOTH       OUTPUT=BOTH       OUTPUT=BOTH    
 IEMINT=       0   IEFINT=       0                     IEDINT=       0
                                                       MORB  =       0
          EXTRAPOLATION IN EFFECT
          SOSCF IN EFFECT
 ORBITAL PRINTING OPTION: NPREO=     1    15     2     1

     -------------------------------
     INTEGRAL TRANSFORMATION OPTIONS
     -------------------------------
     NWORD  =            0
     CUTOFF = 1.0E-09     MPTRAN =       0
     DIRTRF =       F     AOINTS =DUP     

          ----------------------
          INTEGRAL INPUT OPTIONS
          ----------------------
 NOPK  =       1 NORDER=       0 SCHWRZ=       F

     ------------------------------------------
     THE POINT GROUP IS DNH, NAXIS= 2, ORDER= 8
     ------------------------------------------

 -- VARIATIONAL SPACE WILL BE RESTRICTED TO PURE SPHERICAL HARMONICS ONLY --
 AFTER EXCLUDING CONTAMINANT COMBINATIONS FROM THE CARTESIAN GAUSSIAN BASIS
 SET, THE NUMBER OF SPHERICAL HARMONICS KEPT IN THE VARIATION SPACE IS   14

     DIMENSIONS OF THE SYMMETRY SUBSPACES ARE
 AG  =    5     AU  =    0     B3U =    2     B3G =    1     B1G =    1
 B1U =    2     B2U =    2     B2G =    1

 ..... DONE SETTING UP THE RUN .....
 STEP CPU TIME =     0.01 TOTAL CPU TIME =        0.0 (    0.0 MIN)
 TOTAL WALL CLOCK TIME=        0.0 SECONDS, CPU UTILIZATION IS  50.00%

          ********************
          1 ELECTRON INTEGRALS
          ********************
 ...... END OF ONE-ELECTRON INTEGRALS ......
 STEP CPU TIME =     0.00 TOTAL CPU TIME =        0.0 (    0.0 MIN)
 TOTAL WALL CLOCK TIME=        0.0 SECONDS, CPU UTILIZATION IS  50.00%

          -------------
          GUESS OPTIONS
          -------------
          GUESS =HUCKEL            NORB  =       0          NORDER=       0
          MIX   =       F          PRTMO =       F          PUNMO =       F
          TOLZ  = 1.0E-08          TOLE  = 1.0E-05
          SYMDEN=       F          PURIFY=       F

 INITIAL GUESS ORBITALS GENERATED BY HUCKEL   ROUTINE.
 HUCKEL GUESS REQUIRES      2611 WORDS.

 STATISTICS FOR GENERATION OF SYMMETRY ORBITAL -Q- MATRIX
 NUMBER OF CARTESIAN ATOMIC ORBITALS=         15
 NUMBER OF SPHERICAL CONTAMINANTS DROPPED=     1
 NUMBER OF LINEARLY DEPENDENT MOS DROPPED=     0
 TOTAL NUMBER OF MOS IN VARIATION SPACE=      14

 SYMMETRIES FOR INITIAL GUESS ORBITALS FOLLOW.   BOTH SET(S).
     5 ORBITALS ARE OCCUPIED (    1 CORE ORBITALS).
     2=AG       3=B3U      4=B2U      5=B1U      6=AG       7=AG       8=AG  
     9=B3U     10=B3G     11=B1G     12=B1U     13=B2U     14=B2G 
 ...... END OF INITIAL ORBITAL SELECTION ......
 STEP CPU TIME =     0.00 TOTAL CPU TIME =        0.0 (    0.0 MIN)
 TOTAL WALL CLOCK TIME=        0.0 SECONDS, CPU UTILIZATION IS  50.00%

                    ----------------------
                    AO INTEGRAL TECHNOLOGY
                    ----------------------
     S,P,L SHELL ROTATED AXIS INTEGRALS, REPROGRAMMED BY
        KAZUYA ISHIMURA (IMS) AND JOSE SIERRA (SYNSTAR).
     S,P,D,L SHELL ROTATED AXIS INTEGRALS PROGRAMMED BY
        KAZUYA ISHIMURA (INSTITUTE FOR MOLECULAR SCIENCE).
     S,P,D,F,G SHELL TO TOTAL QUARTET ANGULAR MOMENTUM SUM 5,
        ERIC PROGRAM BY GRAHAM FLETCHER (ELORET AND NASA ADVANCED
        SUPERCOMPUTING DIVISION, AMES RESEARCH CENTER).
     S,P,D,F,G,L SHELL GENERAL RYS QUADRATURE PROGRAMMED BY
        MICHEL DUPUIS (PACIFIC NORTHWEST NATIONAL LABORATORY).

          --------------------
          2 ELECTRON INTEGRALS
          --------------------

 THE -PK- OPTION IS OFF, THE INTEGRALS ARE NOT IN SUPERMATRIX FORM.
 STORING   15000 INTEGRALS/RECORD ON DISK, USING 12 BYTES/INTEGRAL.
 TWO ELECTRON INTEGRAL EVALUATION REQUIRES   90417 WORDS OF MEMORY.
 II,JST,KST,LST =  1  1  1  1 NREC =         1 INTLOC =    1
 II,JST,KST,LST =  2  1  1  1 NREC =         1 INTLOC =    2
 II,JST,KST,LST =  3  1  1  1 NREC =         1 INTLOC =    7
 II,JST,KST,LST =  4  1  1  1 NREC =         1 INTLOC =   22
 II,JST,KST,LST =  5  1  1  1 NREC =         1 INTLOC =   67
 II,JST,KST,LST =  6  1  1  1 NREC =         1 INTLOC =  214
 TOTAL NUMBER OF NONZERO TWO-ELECTRON INTEGRALS =                1188
          1 INTEGRAL RECORDS WERE STORED ON DISK FILE  8.
  ...... END OF TWO-ELECTRON INTEGRALS .....
 STEP CPU TIME =     0.02 TOTAL CPU TIME =        0.0 (    0.0 MIN)
 TOTAL WALL CLOCK TIME=        0.0 SECONDS, CPU UTILIZATION IS  75.00%

          --------------------------
                 RHF SCF CALCULATION
          --------------------------

     NUCLEAR ENERGY =         0.0000000000
     MAXIT =   30     NPUNCH=    2
     EXTRAP=T  DAMP=F  SHIFT=F  RSTRCT=F  DIIS=F  DEM=F  SOSCF=T
     DENSITY MATRIX CONV=  1.00E-06
     SOSCF WILL OPTIMIZE      45 ORBITAL ROTATIONS, SOGTOL=   0.250
     MEMORY REQUIRED FOR RHF ITERS=     31965 WORDS.

 ITER EX DEM     TOTAL ENERGY        E CHANGE  DENSITY CHANGE     ORB. GRAD
   1  0  0     -128.4421939882  -128.4421939882   0.076141074   0.000000000
          ---------------START SECOND ORDER SCF---------------
   2  1  0     -128.4882491850    -0.0460551969   0.015430789   0.018192326
   3  2  0     -128.4886733121    -0.0004241271   0.005103983   0.007433437
   4  3  0     -128.4887754963    -0.0001021842   0.000223205   0.000255397
   5  4  0     -128.4887755499    -0.0000000536   0.000053089   0.000051363
   6  5  0     -128.4887755517    -0.0000000018   0.000000053   0.000000369
   7  6  0     -128.4887755517    -0.0000000000   0.000000000   0.000000005

          -----------------
          DENSITY CONVERGED
          -----------------
     TIME TO FORM FOCK OPERATORS=       0.0 SECONDS (       0.0 SEC/ITER)
     TIME TO SOLVE SCF EQUATIONS=       0.0 SECONDS (       0.0 SEC/ITER)

 FINAL RHF ENERGY IS     -128.4887755517 AFTER   7 ITERATIONS

 LZ VALUE ANALYSIS FOR THE MOS
 ----------------------------------------
 MO     1 (    1) HAS LZ(WEIGHT)= 0.00(100.0%) 
 MO     2 (    2) HAS LZ(WEIGHT)= 0.00(100.0%) 
 MO     3 (    3) HAS LZ(WEIGHT)= 0.00(100.0%) 
 MO     4 (    3) HAS LZ(WEIGHT)=-1.00( 50.0%)  1.00( 50.0%) 
 MO     5 (    3) HAS LZ(WEIGHT)=-1.00( 50.0%)  1.00( 50.0%) 
 MO     6 (    4) HAS LZ(WEIGHT)=-1.00( 50.0%)  1.00( 50.0%) 
 MO     7 (    4) HAS LZ(WEIGHT)=-1.00( 50.0%)  1.00( 50.0%) 
 MO     8 (    4) HAS LZ(WEIGHT)= 0.00(100.0%) 
 MO     9 (    5) HAS LZ(WEIGHT)= 0.00(100.0%) 
 MO    10 (    6) HAS LZ(WEIGHT)=-2.00( 50.0%)  2.00( 50.0%) 
 MO    11 (    6) HAS LZ(WEIGHT)=-1.00( 50.0%)  1.00( 50.0%) 
 MO    12 (    6) HAS LZ(WEIGHT)= 0.00(100.0%) 
 MO    13 (    6) HAS LZ(WEIGHT)=-1.00( 50.0%)  1.00( 50.0%) 
 MO    14 (    6) HAS LZ(WEIGHT)=-2.00( 50.0%)  2.00( 50.0%) 

          ------------
          EIGENVECTORS
          ------------

                      1          2          3          4          5
                  -32.7656    -1.9188    -0.8321    -0.8321    -0.8321
                     AG         AG         B1U        B3U        B2U 
    1  NE 1  S    1.000409   0.000000   0.000000   0.000000   0.000000
    2  NE 1  S    0.000000   0.517840   0.000000   0.000000   0.000000
    3  NE 1  S   -0.002100   0.565216   0.000000   0.000000   0.000000
    4  NE 1  X   -0.000000   0.000000   0.000000   0.696473   0.000000
    5  NE 1  Y   -0.000000   0.000000   0.000000   0.000000   0.696473
    6  NE 1  Z   -0.000000   0.000000   0.696473   0.000000   0.000000
    7  NE 1  X   -0.000000   0.000000   0.000000   0.455661   0.000000
    8  NE 1  Y   -0.000000   0.000000   0.000000   0.000000   0.455661
    9  NE 1  Z   -0.000000   0.000000   0.455661   0.000000   0.000000
   10  NE 1 XX   -0.000000   0.000000   0.000000   0.000000   0.000000
   11  NE 1 YY   -0.000000   0.000000   0.000000   0.000000   0.000000
   12  NE 1 ZZ   -0.000000   0.000000   0.000000   0.000000   0.000000
   13  NE 1 XY   -0.000000   0.000000   0.000000   0.000000   0.000000
   14  NE 1 XZ   -0.000000   0.000000   0.000000   0.000000   0.000000
   15  NE 1 YZ   -0.000000   0.000000   0.000000   0.000000   0.000000

                      6          7          8          9         10
                    1.6946     1.6946     1.6946     2.1594     5.1967
                     B3U        B2U        B1U        AG         B1G 
    1  NE 1  S   -0.000000  -0.000000  -0.000000   0.621576   0.000000
    2  NE 1  S   -0.000000  -0.000000  -0.000000   1.542649   0.000000
    3  NE 1  S   -0.000000  -0.000000  -0.000000  -1.520728   0.000000
    4  NE 1  X   -0.906146  -0.000000  -0.000000   0.000000   0.000000
    5  NE 1  Y   -0.000000  -0.906146  -0.000000   0.000000   0.000000
    6  NE 1  Z   -0.000000  -0.000000  -0.906146   0.000000   0.000000
    7  NE 1  X    1.048117  -0.000000  -0.000000   0.000000   0.000000
    8  NE 1  Y   -0.000000   1.048117  -0.000000   0.000000   0.000000
    9  NE 1  Z   -0.000000  -0.000000   1.048117   0.000000   0.000000
   10  NE 1 XX   -0.000000  -0.000000  -0.000000   0.000000   0.000000
   11  NE 1 YY   -0.000000  -0.000000  -0.000000   0.000000   0.000000
   12  NE 1 ZZ   -0.000000  -0.000000  -0.000000   0.000000   0.000000
   13  NE 1 XY   -0.000000  -0.000000  -0.000000   0.000000   1.000000
   14  NE 1 XZ   -0.000000  -0.000000  -0.000000   0.000000   0.000000
   15  NE 1 YZ   -0.000000  -0.000000  -0.000000   0.000000   0.000000

                     11         12         13         14
                    5.1967     5.1967     5.1967     5.1967
                     B3G        AG         B2G        AG  
    1  NE 1  S    0.000000   0.000000   0.000000   0.000000
    2  NE 1  S    0.000000   0.000000   0.000000   0.000000
    3  NE 1  S    0.000000   0.000000   0.000000   0.000000
    4  NE 1  X    0.000000   0.000000   0.000000   0.000000
    5  NE 1  Y    0.000000   0.000000   0.000000   0.000000
    6  NE 1  Z    0.000000   0.000000   0.000000   0.000000
    7  NE 1  X    0.000000   0.000000   0.000000   0.000000
    8  NE 1  Y    0.000000   0.000000   0.000000   0.000000
    9  NE 1  Z    0.000000   0.000000   0.000000   0.000000
   10  NE 1 XX    0.000000  -0.500000   0.000000   0.866025
   11  NE 1 YY    0.000000  -0.500000   0.000000  -0.866025
   12  NE 1 ZZ    0.000000   1.000000   0.000000   0.000000
   13  NE 1 XY    0.000000   0.000000   0.000000   0.000000
   14  NE 1 XZ    0.000000   0.000000   1.000000   0.000000
   15  NE 1 YZ    1.000000   0.000000   0.000000   0.000000
 ...... END OF RHF CALCULATION ......
 STEP CPU TIME =     0.01 TOTAL CPU TIME =        0.0 (    0.0 MIN)
 TOTAL WALL CLOCK TIME=        0.1 SECONDS, CPU UTILIZATION IS  80.00%

     ----------------------------------------------------------------
     PROPERTY VALUES FOR THE RHF   SELF-CONSISTENT FIELD WAVEFUNCTION
     ----------------------------------------------------------------

          -----------------
          ENERGY COMPONENTS
          -----------------

         WAVEFUNCTION NORMALIZATION =       1.0000000000

                ONE ELECTRON ENERGY =    -182.6161002898
                TWO ELECTRON ENERGY =      54.1273247381
           NUCLEAR REPULSION ENERGY =       0.0000000000
                                      ------------------
                       TOTAL ENERGY =    -128.4887755517

 ELECTRON-ELECTRON POTENTIAL ENERGY =      54.1273247381
  NUCLEUS-ELECTRON POTENTIAL ENERGY =    -311.1049627743
   NUCLEUS-NUCLEUS POTENTIAL ENERGY =       0.0000000000
                                      ------------------
             TOTAL POTENTIAL ENERGY =    -256.9776380362
               TOTAL KINETIC ENERGY =     128.4888624845
                 VIRIAL RATIO (V/T) =       1.9999993234

          ---------------------------------------
          MULLIKEN AND LOWDIN POPULATION ANALYSES
          ---------------------------------------

               ----- POPULATIONS IN EACH AO -----
                             MULLIKEN      LOWDIN
              1  NE 1  S      2.00081     1.90474
              2  NE 1  S      0.94869     0.67314
              3  NE 1  S      1.05050     0.74676
              4  NE 1  X      1.27745     1.24276
              5  NE 1  Y      1.27745     1.24276
              6  NE 1  Z      1.27745     1.24276
              7  NE 1  X      0.72255     0.75724
              8  NE 1  Y      0.72255     0.75724
              9  NE 1  Z      0.72255     0.75724
             10  NE 1 XX      0.00000     0.22512
             11  NE 1 YY      0.00000     0.22512
             12  NE 1 ZZ      0.00000     0.22512
             13  NE 1 XY      0.00000     0.00000
             14  NE 1 XZ      0.00000     0.00000
             15  NE 1 YZ      0.00000     0.00000

          ----- MULLIKEN ATOMIC OVERLAP POPULATIONS -----
          (OFF-DIAGONAL ELEMENTS NEED TO BE MULTIPLIED BY 2)

             1

    1   10.0000000

          TOTAL MULLIKEN AND LOWDIN ATOMIC POPULATIONS
       ATOM         MULL.POP.    CHARGE          LOW.POP.     CHARGE
    1 NE           10.000000   -0.000000        10.000000    0.000000

          MULLIKEN SPHERICAL HARMONIC POPULATIONS
       ATOM           S       P       D      F      G      H      I    TOTAL
    1 NE            4.00    6.00    0.00   0.00   0.00   0.00   0.00   10.00

          ---------------------
          ELECTROSTATIC MOMENTS
          ---------------------

 POINT   1           X           Y           Z (BOHR)    CHARGE
                 0.000000    0.000000    0.000000        0.00 (A.U.)
         DX          DY          DZ         /D/  (DEBYE)
     0.000000    0.000000    0.000000    0.000000
 ...... END OF PROPERTY EVALUATION ......
 STEP CPU TIME =     0.00 TOTAL CPU TIME =        0.0 (    0.0 MIN)
 TOTAL WALL CLOCK TIME=        0.1 SECONDS, CPU UTILIZATION IS  80.00%

 GUGA CI OPTIONS      NRNFG     NPFLG
 ------------------------------------

 -DRT- TABLE          1         0
 TRANSFORMATION       1         0
 ENERGY MATRIX        1         0
 DIAGONALIZATION      1         0
 1E-DENSITY MATRIX    1         0
 2E-DENSITY MATRIX    1         0
 LAGRANGIAN MATRIX    0         0
------------------------------------

 -DRT- TABLE          0         0
 TRANSFORMATION   

          -----------------------     ----------------------------
          GUGA DISTINCT ROW TABLE     WRITTEN BY B.R.BROOKS,P.SAXE
          -----------------------     ----------------------------

      GROUP=D2H          NPRT=       0
       FORS=       F   INTACT=       F
       FOCI=       F   MXNINT=   50000
       SOCI=       F   MXNEME=   10000
     IEXCIT=       3

      -CORE-    -INTERNAL-  -EXTERNAL-
     NFZC=   0   NDOC=   5   NEXT=   0
     NMCC=   0   NAOS=   0   NFZV=   0
                 NBOS=   0
                 NALP=   0
                 NVAL=   9

 THE MAXIMUM ELECTRON EXCITATION WILL BE   3

 SYMMETRIES FOR THE   0 CORE,  14 ACTIVE,   0 EXTERNAL MO-S ARE
   ACTIVE= AG    AG    B1U   B3U   B2U   B3U   B2U   B1U   AG    B1G 
           DOC   DOC   DOC   DOC   DOC   VAL   VAL   VAL   VAL   VAL 
   ACTIVE= B3G   AG    B2G   AG  
           VAL   VAL   VAL   VAL 

 MOLECULAR CHARGE          =    0
 NUMBER OF ALPHA ELECTRONS =    5
 NUMBER OF  BETA ELECTRONS =    5

 THE ELECTRONIC STATE IS  1-AG  

 THE DISTINCT ROW TABLE HAS       210 ROWS.
  THE WAVEFUNCTION CONTAINS      1511 WALKS (CSF-S).

 TOTAL NUMBER OF INTEGRALS =       1030
 NUMBER OF INTEGRALS/GROUP =       1030
 NUMBER OF INTEGRAL GROUPS =          1
 MAXIMUM RECORD SIZES ARE    1511 FOR UNIT 11    1511 FOR UNIT 12
                            30001 FOR UNIT 15   30001 FOR UNIT 16
 ...... END OF -DRT- GENERATION ...... 
 STEP CPU TIME =     0.43 TOTAL CPU TIME =        0.5 (    0.0 MIN)
 TOTAL WALL CLOCK TIME=        0.5 SECONDS, CPU UTILIZATION IS  97.92%

     --------------------------------------------
     PARTIAL TWO ELECTRON INTEGRAL TRANSFORMATION
     --------------------------------------------

 NUMBER OF CORE MOLECULAR ORBITALS     =    0
 NUMBER OF OCCUPIED MOLECULAR ORBITALS =   14
 TOTAL NUMBER OF MOLECULAR ORBITALS    =   14
 TOTAL NUMBER OF ATOMIC ORBITALS       =   15
 THRESHOLD FOR KEEPING TRANSFORMED 2E- INTEGRALS = 1.000E-09
 AO INTEGRALS WILL BE READ IN FROM DISK...

 PLAN A: REQUIREMENTS FOR FULLY IN-MEMORY TRANSFORMATION:
 # OF WORDS AVAILABLE =            100000000
 # OF WORDS NEEDED    =                86357

 CHOOSING IN MEMORY PARTIAL TRANSFORMATION...
 TOTAL NUMBER OF TRANSFORMED 2E- INTEGRALS KEPT =          776
 ... END OF INTEGRAL TRANSFORMATION ...
 STEP CPU TIME =     0.00 TOTAL CPU TIME =        0.5 (    0.0 MIN)
 TOTAL WALL CLOCK TIME=        0.5 SECONDS, CPU UTILIZATION IS  97.92%

          ------------------------
          GUGA-CI INTEGRAL SORTING
          ------------------------

     80645 WORDS NEEDED TO SORT           1030 GUGA INTEGRALS IN MEMORY
 100000000 WORDS ARE AVAILABLE
 CHOOSING IN-MEMORY SORTING...
 IN CORE ALGORITHM SORTED             27 NON-ZERO 1E- INTEGRALS
 IN CORE ALGORITHM SORTED            776 NON-ZERO 2E- INTEGRALS
 ...... END OF INTEGRAL SORTING ...... 
 STEP CPU TIME =     0.00 TOTAL CPU TIME =        0.5 (    0.0 MIN)
 TOTAL WALL CLOCK TIME=        0.5 SECONDS, CPU UTILIZATION IS  97.92%

 -------------------------     ---------------------------------------
 ENERGY MATRIX CALCULATION     WRITTEN BY B.R.BROOKS,W.D.LAIDIG,P.SAXE
 -------------------------     ---------------------------------------

 COMPUTING THE HAMILTONIAN FOR THE      1511 CSF-S...

       91584 IS THE TOTAL NUMBER OF GENERATED LOOPS
       91584 WERE CREATED BY THE LOOP-DRIVEN ALGORITHM
           0 WERE CREATED IMPLICITLY

       70757 IS THE TOTAL NUMBER OF PROCESSED LOOPS
        9275     DIAGONAL LOOPS ARE STORED ON WORK15 IN     1 BUFFERS OF  10000 ELEMENTS.
       61482 OFF DIAGONAL LOOPS ARE STORED ON WORK16 IN     7 BUFFERS OF  10000 ELEMENTS.
 ...... END OF ENERGY MATRIX CALCULATION ...... 
 STEP CPU TIME =     0.02 TOTAL CPU TIME =        0.5 (    0.0 MIN)
 TOTAL WALL CLOCK TIME=        0.5 SECONDS, CPU UTILIZATION IS  96.08%

          -----------------------------------------
          DAVIDSON METHOD CI-MATRIX DIAGONALIZATION
                   WRITTEN BY STEVE ELBERT
          -----------------------------------------
 NUMBER OF STATES REQUESTED =     1
 MAX. NUMB. OF EXPAN. VEC   =    30
 MAX. NUMB. IMPROVED STATES =     1
 MAX. NUMB. OF ITERATIONS   =    50
 CONVERGENCE CRITERION      =    1.0E-06

 CHOOSING TO SOLVE SECULAR EQUATION IN MEMORY
 NUMBER OF WORDS AVAILABLE =  100000000
 NUMBER OF WORDS USED      =    1286631
 ENERGY MATRIX BUFFER SIZE =      10000

 ITER. NO.JUST IMPROVED    ENERGY AND STATE
   0  50(MAX.TOL.STATE)   -128.514747914  1
   1   6  0.82894297  3   -128.673603457  1
   2   5  0.43457501  4   -128.676360292  1
   3   4  0.05169927  3   -128.676399080  1
   4   3  0.00223772  2   -128.676399414  1
   5   2  0.00001854  1   -128.676399417  1
   6   1  0.00000182  1   -128.676399417  1
   7   1  0.00000017  1   -128.676399417  1
 SOLUTION FOUND WITH INDIRECT METHOD

 STATE #    1  ENERGY =    -128.676399417

      CSF      COEF    OCCUPANCY (IGNORING CORE)
      ---      ----    --------- --------- -----
        1    0.986971  22222000000000
 ...... END OF CI-MATRIX DIAGONALIZATION ......
 STEP CPU TIME =     0.05 TOTAL CPU TIME =        0.5 (    0.0 MIN)
 TOTAL WALL CLOCK TIME=        0.6 SECONDS, CPU UTILIZATION IS  96.43%

          --------------------------------------
          CI DENSITY MATRIX AND NATURAL ORBITALS
          --------------------------------------
 PROPERTIES WILL BE COMPUTED FOR STATE -IROOT-   1 WITH E=     -128.6763994168
 NFLGDM=   1
 NWORD=         0  IBLOCK=   0
 NUMBER OF STATES         =      1
 NUMBER OF CONFIGURATIONS =   1511

          CI EIGENSTATE    1 TOTAL ENERGY =     -128.6763994168
          DENSITY MATRIX OF STATE   1 SAVED FOR PROPERTY ANALYSIS

          NATURAL ORBITALS IN ATOMIC ORBITAL BASIS
          ----------------------------------------

                      1          2          3          4          5
                    2.0000     1.9929     1.9851     1.9851     1.9851
                     AG         AG         B3U        B1U        B2U 
    1  NE 1  S    1.000364   0.013709   0.000000   0.000000   0.000000
    2  NE 1  S   -0.007315   0.516049   0.000000   0.000000   0.000000
    3  NE 1  S   -0.010382   0.566839   0.000000   0.000000   0.000000
    4  NE 1  X   -0.000000   0.000000   0.695492   0.000000   0.000000
    5  NE 1  Y   -0.000000   0.000000   0.000000   0.000000   0.695492
    6  NE 1  Z   -0.000000   0.000000   0.000000   0.695492   0.000000
    7  NE 1  X   -0.000000   0.000000   0.456794   0.000000   0.000000
    8  NE 1  Y   -0.000000   0.000000   0.000000   0.000000   0.456794
    9  NE 1  Z   -0.000000   0.000000   0.000000   0.456794   0.000000
   10  NE 1 XX    0.000000  -0.000000   0.000000   0.000000   0.000000
   11  NE 1 YY   -0.000000  -0.000000   0.000000   0.000000   0.000000
   12  NE 1 ZZ    0.000000   0.000000   0.000000   0.000000   0.000000
   13  NE 1 XY   -0.000000   0.000000   0.000000   0.000000   0.000000
   14  NE 1 XZ   -0.000000   0.000000   0.000000   0.000000   0.000000
   15  NE 1 YZ   -0.000000   0.000000   0.000000   0.000000   0.000000

                      6          7          8          9         10
                    0.0110     0.0110     0.0110     0.0066     0.0024
                     B2U        B1U        B3U        AG         B2G 
    1  NE 1  S   -0.000000  -0.000000  -0.000000   0.621499   0.000000
    2  NE 1  S   -0.000000  -0.000000  -0.000000   1.543232   0.000000
    3  NE 1  S   -0.000000  -0.000000  -0.000000  -1.520090   0.000000
    4  NE 1  X   -0.000000  -0.000000  -0.906899   0.000000   0.000000
    5  NE 1  Y   -0.906899  -0.000000  -0.000000   0.000000   0.000000
    6  NE 1  Z   -0.000000  -0.906899  -0.000000   0.000000   0.000000
    7  NE 1  X   -0.000000  -0.000000   1.047623   0.000000   0.000000
    8  NE 1  Y    1.047623  -0.000000  -0.000000   0.000000   0.000000
    9  NE 1  Z   -0.000000   1.047623  -0.000000   0.000000   0.000000
   10  NE 1 XX   -0.000000  -0.000000  -0.000000  -0.000000   0.000000
   11  NE 1 YY   -0.000000  -0.000000  -0.000000  -0.000000   0.000000
   12  NE 1 ZZ   -0.000000  -0.000000  -0.000000   0.000000   0.000000
   13  NE 1 XY   -0.000000  -0.000000  -0.000000   0.000000   0.000000
   14  NE 1 XZ   -0.000000  -0.000000  -0.000000   0.000000   1.000000
   15  NE 1 YZ   -0.000000  -0.000000  -0.000000   0.000000   0.000000

                     11         12         13         14
                    0.0024     0.0024     0.0024     0.0024
                     B3G        AG         AG         B1G 
    1  NE 1  S    0.000000  -0.000000   0.000000   0.000000
    2  NE 1  S    0.000000  -0.000000   0.000000   0.000000
    3  NE 1  S    0.000000   0.000000  -0.000000   0.000000
    4  NE 1  X    0.000000  -0.000000   0.000000   0.000000
    5  NE 1  Y    0.000000  -0.000000   0.000000   0.000000
    6  NE 1  Z    0.000000  -0.000000   0.000000   0.000000
    7  NE 1  X    0.000000  -0.000000   0.000000   0.000000
    8  NE 1  Y    0.000000  -0.000000   0.000000   0.000000
    9  NE 1  Z    0.000000  -0.000000   0.000000   0.000000
   10  NE 1 XX    0.000000  -0.576290  -0.817246   0.000000
   11  NE 1 YY    0.000000  -0.419611   0.907704   0.000000
   12  NE 1 ZZ    0.000000   0.995900  -0.090459   0.000000
   13  NE 1 XY    0.000000  -0.000000   0.000000   1.000000
   14  NE 1 XZ    0.000000  -0.000000   0.000000   0.000000
   15  NE 1 YZ    1.000000  -0.000000   0.000000   0.000000
 ...... END OF DENSITY MATRIX CALCULATION ...... 
 STEP CPU TIME =     0.00 TOTAL CPU TIME =        0.5 (    0.0 MIN)
 TOTAL WALL CLOCK TIME=        0.6 SECONDS, CPU UTILIZATION IS  96.43%

          -------------------------------------
          2-PARTICLE DENSITY MATRIX CALCULATION
          -------------------------------------
 2 BODY DENSITY IS AN AVERAGE OF  1 STATE(S).
   STATE    WEIGHT          ENERGY
     1    1.000000     -128.6763994168
        91584 -DM2- LOOPS WERE GENERATED
        91584 WERE CREATED BY THE LOOP-DRIVEN ALGORITHM
            0 WERE CREATED IMPLICITLY
          1 RECORDS OF LENGTH 50000 WRITTEN TO FILE 15
 ...... END OF 2-PARTICLE DENSITY MATRIX CALCULATION ......
 STEP CPU TIME =     0.02 TOTAL CPU TIME =        0.6 (    0.0 MIN)
 TOTAL WALL CLOCK TIME=        0.6 SECONDS, CPU UTILIZATION IS  96.55%

          ----------------------------------
          2-PARTICLE DENSITY MATRIX LABELING
          ----------------------------------
      96927 WORDS NEEDED TO LABEL DM2 MATRIX
          1 RECORDS OF LENGTH 50000  READ FROM FILE 15
          1 RECORDS OF LENGTH 15000 WRITTEN TO FILE 16
 ...... END OF 2-PARTICLE DENSITY MATRIX LABELING ......
 STEP CPU TIME =     0.00 TOTAL CPU TIME =        0.6 (    0.0 MIN)
 TOTAL WALL CLOCK TIME=        0.6 SECONDS, CPU UTILIZATION IS  96.55%

          --------------
          -DM2- ORDERING
          --------------
      35671 WORDS NEEDED ( 100000000 AVAILABLE) TO ORDER DM2 IN MEMORY
 CHOOSING IN MEMORY ORDERING...
                               1 RECORDS OF LENGTH 15000  READ FROM FILE 16
        777 DM2 VALUES IN      1 RECORDS OF LENGTH 15000 WRITTEN TO FILE 15
 ...... END OF -DM2- ORDERING ...... 
 STEP CPU TIME =     0.00 TOTAL CPU TIME =        0.6 (    0.0 MIN)
 TOTAL WALL CLOCK TIME=        0.6 SECONDS, CPU UTILIZATION IS  96.55%

     --------------------------------------------------------
     GUGA  CI PROPERTIES...FOR THE WAVEFUNCTION OF STATE    1
               USING THE EXPECTATION VALUE DENSITY
     --------------------------------------------------------

          -----------------
          ENERGY COMPONENTS
          -----------------

         WAVEFUNCTION NORMALIZATION =       1.0000000000

                ONE ELECTRON ENERGY =    -182.3536925117
                TWO ELECTRON ENERGY =      53.6772930949
           NUCLEAR REPULSION ENERGY =       0.0000000000
                                      ------------------
                       TOTAL ENERGY =    -128.6763994168

 ELECTRON-ELECTRON POTENTIAL ENERGY =      53.6772930949
  NUCLEUS-ELECTRON POTENTIAL ENERGY =    -310.8610615681
   NUCLEUS-NUCLEUS POTENTIAL ENERGY =       0.0000000000
                                      ------------------
             TOTAL POTENTIAL ENERGY =    -257.1837684732
               TOTAL KINETIC ENERGY =     128.5073690564
                 VIRIAL RATIO (V/T) =       2.0013153359

          ---------------------------------------
          MULLIKEN AND LOWDIN POPULATION ANALYSES
          ---------------------------------------

               ----- POPULATIONS IN EACH AO -----
                             MULLIKEN      LOWDIN
              1  NE 1  S      2.00086     1.90498
              2  NE 1  S      0.94516     0.67209
              3  NE 1  S      1.05337     0.74955
              4  NE 1  X      1.26956     1.23562
              5  NE 1  Y      1.26956     1.23562
              6  NE 1  Z      1.26956     1.23562
              7  NE 1  X      0.72660     0.76054
              8  NE 1  Y      0.72660     0.76054
              9  NE 1  Z      0.72660     0.76054
             10  NE 1 XX      0.00243     0.22587
             11  NE 1 YY      0.00243     0.22587
             12  NE 1 ZZ      0.00243     0.22587
             13  NE 1 XY      0.00243     0.00243
             14  NE 1 XZ      0.00243     0.00243
             15  NE 1 YZ      0.00000     0.00243

          ----- MULLIKEN ATOMIC OVERLAP POPULATIONS -----
          (OFF-DIAGONAL ELEMENTS NEED TO BE MULTIPLIED BY 2)

             1

    1   10.0000000

          TOTAL MULLIKEN AND LOWDIN ATOMIC POPULATIONS
       ATOM         MULL.POP.    CHARGE          LOW.POP.     CHARGE
    1 NE           10.000000   -0.000000        10.000000    0.000000

          MULLIKEN SPHERICAL HARMONIC POPULATIONS
       ATOM           S       P       D      F      G      H      I    TOTAL
    1 NE            4.00    5.99    0.01   0.00   0.00   0.00   0.00   10.00

          ---------------------
          ELECTROSTATIC MOMENTS
          ---------------------

 POINT   1           X           Y           Z (BOHR)    CHARGE
                 0.000000    0.000000    0.000000       -0.00 (A.U.)
         DX          DY          DZ         /D/  (DEBYE)
     0.000000    0.000000    0.000000    0.000000
 ...... END OF PROPERTY EVALUATION ......
 STEP CPU TIME =     0.01 TOTAL CPU TIME =        0.6 (    0.0 MIN)
 TOTAL WALL CLOCK TIME=        0.6 SECONDS, CPU UTILIZATION IS  98.28%
              1474465  WORDS OF DYNAMIC MEMORY USED
 EXECUTION OF GAMESS TERMINATED NORMALLY Thu Jul 31 01:23:19 2014
 DDI: 263624 bytes (0.3 MB / 0 MWords) used by master data server.

 ----------------------------------------
 CPU timing information for all processes
 ========================================
 0: 0.308 + 0.336 = 0.644
 ----------------------------------------
 ddikick.x: exited gracefully.
unset echo
----- accounting info -----
Files used on the master node doreen were:
-rw-r--r-- 1 lmentel lmentel    7917 lip 31 01:23 /home/lmentel/scratch/ne_dz_guga.dat
-rw-r--r-- 1 lmentel lmentel     466 lip 31 01:23 /home/lmentel/scratch/ne_dz_guga.F05
-rw-r--r-- 1 lmentel lmentel  180016 lip 31 01:23 /home/lmentel/scratch/ne_dz_guga.F08
-rw-r--r-- 1 lmentel lmentel  180864 lip 31 01:23 /home/lmentel/scratch/ne_dz_guga.F09
-rw-r--r-- 1 lmentel lmentel 1308800 lip 31 01:23 /home/lmentel/scratch/ne_dz_guga.F10
-rw-r--r-- 1 lmentel lmentel  313616 lip 31 01:23 /home/lmentel/scratch/ne_dz_guga.F11
-rw-r--r-- 1 lmentel lmentel   12280 lip 31 01:23 /home/lmentel/scratch/ne_dz_guga.F12
-rw-r--r-- 1 lmentel lmentel  400008 lip 31 01:23 /home/lmentel/scratch/ne_dz_guga.F14
-rw-r--r-- 1 lmentel lmentel  180864 lip 31 01:23 /home/lmentel/scratch/ne_dz_guga.F15
-rw-r--r-- 1 lmentel lmentel  180864 lip 31 01:23 /home/lmentel/scratch/ne_dz_guga.F16
pwd
cp /home/lmentel/scratch/ne_dz_guga.F08 /home/lmentel/Devel/chemtools/tests/test_gamessus/data/ne/
pwd
cp /home/lmentel/scratch/ne_dz_guga.F09 /home/lmentel/Devel/chemtools/tests/test_gamessus/data/ne/
pwd
cp /home/lmentel/scratch/ne_dz_guga.F15 /home/lmentel/Devel/chemtools/tests/test_gamessus/data/ne/
pwd
cp /home/lmentel/scratch/ne_dz_guga.F10 /home/lmentel/Devel/chemtools/tests/test_gamessus/data/ne/ne_dz_guga.F10
pwd
cp /home/lmentel/scratch/basis.info /home/lmentel/Devel/chemtools/tests/test_gamessus/data/ne/ne_dz_guga.basinfo
unset echo
ls: No match.
ls: No match.
ls: No match.
czw, 31 lip 2014, 01:23:22 CEST
0.0u 0.0s 0:03.75 0.8% 0+0k 0+3656io 0pf+0w
